<?xml version="1.0" encoding="UTF-8"?>

<!-- generated on Wednesday 14 March 2018 11:55:28 AM IST by SUMO gui Version 0.32.0
<?xml version="1.0" encoding="UTF-8"?>

<configuration xmlns:xsi="http://www.w3.org/2001/XMLSchema-instance" xsi:noNamespaceSchemaLocation="http://sumo.dlr.de/xsd/sumoConfiguration.xsd">

    <input>
        <net-file value="data/lalbagh.net.xml"/>
        <route-files value="data/cross.rou.xml"/>
        <additional-files value="data/lalbagh.poly.xml"/>
    </input>

    <output>
        <tripinfo-output value="tripinfo.xml"/>
    </output>

    <time>
        <begin value="0"/>
    </time>

    <report>
        <verbose value="true"/>
        <no-step-log value="true"/>
    </report>

    <traci_server>
        <remote-port value="46869"/>
    </traci_server>

</configuration>
-->

<tripinfos xmlns:xsi="http://www.w3.org/2001/XMLSchema-instance" xsi:noNamespaceSchemaLocation="http://sumo.dlr.de/xsd/tripinfo_file.xsd">
    <tripinfo id="bike_right_7" depart="6.00" departLane="23081414#0_0" departPos="1.90" departSpeed="0.00" departDelay="3.00" arrival="152.00" arrivalLane="south_0" arrivalPos="658.69" arrivalSpeed="20.00" duration="146.00" routeLength="1682.90" waitSteps="3" timeLoss="54.46" rerouteNo="0" devices="tripinfo_bike_right_7" vType="bike" speedFactor="1.05" vaporized=""/>
    <tripinfo id="car_right_6" depart="3.00" departLane="23081414#0_0" departPos="5.10" departSpeed="0.00" departDelay="0.00" arrival="158.00" arrivalLane="south_0" arrivalPos="658.69" arrivalSpeed="16.59" duration="155.00" routeLength="1679.70" waitSteps="18" timeLoss="49.58" rerouteNo="0" devices="tripinfo_car_right_6" vType="car" speedFactor="1.00" vaporized=""/>
    <tripinfo id="car_right_15" depart="18.00" departLane="23081414#0_0" departPos="5.10" departSpeed="0.00" departDelay="7.00" arrival="249.00" arrivalLane="south_0" arrivalPos="658.69" arrivalSpeed="16.64" duration="231.00" routeLength="1679.70" waitSteps="56" timeLoss="125.45" rerouteNo="0" devices="tripinfo_car_right_15" vType="car" speedFactor="1.00" vaporized=""/>
    <tripinfo id="car_left_0" depart="0.00" departLane="462585125#2_0" departPos="5.10" departSpeed="0.00" departDelay="0.00" arrival="257.00" arrivalLane="37339420#4_0" arrivalPos="51.43" arrivalSpeed="16.46" duration="257.00" routeLength="2128.36" waitSteps="68" timeLoss="126.28" rerouteNo="0" devices="tripinfo_car_left_0" vType="car" speedFactor="1.00" vaporized=""/>
    <tripinfo id="bike_left_1" depart="3.00" departLane="462585125#2_0" departPos="1.90" departSpeed="0.00" departDelay="3.00" arrival="258.00" arrivalLane="37339420#4_1" arrivalPos="51.43" arrivalSpeed="19.36" duration="255.00" routeLength="2131.56" waitSteps="44" timeLoss="146.86" rerouteNo="0" devices="tripinfo_bike_left_1" vType="bike" speedFactor="1.30" vaporized=""/>
    <tripinfo id="car_left_3" depart="15.00" departLane="462585125#2_0" departPos="5.10" departSpeed="0.00" departDelay="13.00" arrival="267.00" arrivalLane="37339420#4_1" arrivalPos="51.43" arrivalSpeed="16.28" duration="252.00" routeLength="2128.36" waitSteps="46" timeLoss="122.02" rerouteNo="0" devices="tripinfo_car_left_3" vType="car" speedFactor="1.00" vaporized=""/>
    <tripinfo id="car_left_12" depart="30.00" departLane="462585125#2_0" departPos="5.10" departSpeed="0.00" departDelay="20.00" arrival="270.00" arrivalLane="37339420#4_1" arrivalPos="51.43" arrivalSpeed="16.54" duration="240.00" routeLength="2128.36" waitSteps="29" timeLoss="109.98" rerouteNo="0" devices="tripinfo_car_left_12" vType="car" speedFactor="1.00" vaporized=""/>
    <tripinfo id="bike_left_4" depart="18.00" departLane="462585125#2_0" departPos="1.90" departSpeed="0.00" departDelay="16.00" arrival="276.00" arrivalLane="37339420#4_1" arrivalPos="51.43" arrivalSpeed="19.19" duration="258.00" routeLength="2131.56" waitSteps="36" timeLoss="136.91" rerouteNo="0" devices="tripinfo_bike_left_4" vType="bike" speedFactor="0.69" vaporized=""/>
    <tripinfo id="bus_right_8" depart="12.00" departLane="23081414#0_0" departPos="7.10" departSpeed="0.00" departDelay="9.00" arrival="286.00" arrivalLane="south_0" arrivalPos="658.69" arrivalSpeed="9.90" duration="274.00" routeLength="1677.70" waitSteps="57" timeLoss="105.62" rerouteNo="0" devices="tripinfo_bus_right_8" vType="bus" speedFactor="1.00" vaporized=""/>
    <tripinfo id="bus_right_17" depart="29.00" departLane="23081414#0_0" departPos="7.10" departSpeed="0.00" departDelay="18.00" arrival="288.00" arrivalLane="south_1" arrivalPos="658.69" arrivalSpeed="9.80" duration="259.00" routeLength="1677.70" waitSteps="44" timeLoss="90.70" rerouteNo="0" devices="tripinfo_bus_right_17" vType="bus" speedFactor="1.00" vaporized=""/>
    <tripinfo id="bike_right_16" depart="22.00" departLane="23081414#0_0" departPos="1.90" departSpeed="0.00" departDelay="11.00" arrival="290.00" arrivalLane="south_0" arrivalPos="658.69" arrivalSpeed="12.38" duration="268.00" routeLength="1682.90" waitSteps="50" timeLoss="180.07" rerouteNo="0" devices="tripinfo_bike_right_16" vType="bike" speedFactor="1.23" vaporized=""/>
    <tripinfo id="car_right_21" depart="36.00" departLane="23081414#0_0" departPos="5.10" departSpeed="0.00" departDelay="14.00" arrival="291.00" arrivalLane="south_0" arrivalPos="658.69" arrivalSpeed="12.58" duration="255.00" routeLength="1679.70" waitSteps="42" timeLoss="149.33" rerouteNo="0" devices="tripinfo_car_right_21" vType="car" speedFactor="1.00" vaporized=""/>
    <tripinfo id="bike_right_22" depart="39.00" departLane="23081414#0_0" departPos="1.90" departSpeed="0.00" departDelay="17.00" arrival="292.00" arrivalLane="south_1" arrivalPos="658.69" arrivalSpeed="12.47" duration="253.00" routeLength="1682.90" waitSteps="31" timeLoss="144.79" rerouteNo="0" devices="tripinfo_bike_right_22" vType="bike" speedFactor="0.69" vaporized=""/>
    <tripinfo id="car_right_27" depart="52.00" departLane="23081414#0_0" departPos="5.10" departSpeed="0.00" departDelay="27.00" arrival="293.00" arrivalLane="south_1" arrivalPos="658.69" arrivalSpeed="12.34" duration="241.00" routeLength="1679.70" waitSteps="30" timeLoss="135.40" rerouteNo="0" devices="tripinfo_car_right_27" vType="car" speedFactor="1.00" vaporized=""/>
    <tripinfo id="bus_right_23" depart="46.00" departLane="23081414#0_0" departPos="7.10" departSpeed="0.00" departDelay="24.00" arrival="294.00" arrivalLane="south_0" arrivalPos="658.69" arrivalSpeed="9.89" duration="248.00" routeLength="1677.70" waitSteps="33" timeLoss="79.36" rerouteNo="0" devices="tripinfo_bus_right_23" vType="bus" speedFactor="1.00" vaporized=""/>
    <tripinfo id="car_right_30" depart="68.00" departLane="23081414#0_0" departPos="5.10" departSpeed="0.00" departDelay="37.00" arrival="295.00" arrivalLane="south_1" arrivalPos="658.69" arrivalSpeed="12.54" duration="227.00" routeLength="1679.70" waitSteps="12" timeLoss="121.15" rerouteNo="0" devices="tripinfo_car_right_30" vType="car" speedFactor="1.00" vaporized=""/>
    <tripinfo id="bike_right_28" depart="55.00" departLane="23081414#0_0" departPos="1.90" departSpeed="0.00" departDelay="30.00" arrival="297.00" arrivalLane="south_0" arrivalPos="658.69" arrivalSpeed="11.85" duration="242.00" routeLength="1682.90" waitSteps="17" timeLoss="157.77" rerouteNo="0" devices="tripinfo_bike_right_28" vType="bike" speedFactor="1.45" vaporized=""/>
    <tripinfo id="bike_right_31" depart="71.00" departLane="23081414#0_0" departPos="1.90" departSpeed="0.00" departDelay="40.00" arrival="299.00" arrivalLane="south_1" arrivalPos="658.69" arrivalSpeed="13.31" duration="228.00" routeLength="1682.90" waitSteps="6" timeLoss="137.94" rerouteNo="0" devices="tripinfo_bike_right_31" vType="bike" speedFactor="1.13" vaporized=""/>
    <tripinfo id="bus_right_29" depart="62.00" departLane="23081414#0_0" departPos="7.10" departSpeed="0.00" departDelay="37.00" arrival="300.00" arrivalLane="south_0" arrivalPos="658.69" arrivalSpeed="9.85" duration="238.00" routeLength="1677.70" waitSteps="15" timeLoss="69.36" rerouteNo="0" devices="tripinfo_bus_right_29" vType="bus" speedFactor="1.00" vaporized=""/>
    <tripinfo id="car_up_9" depart="4.00" departLane="37339420#9_0" departPos="5.10" departSpeed="0.00" departDelay="0.00" arrival="319.00" arrivalLane="east_1_0" arrivalPos="285.95" arrivalSpeed="13.83" duration="315.00" routeLength="3268.72" waitSteps="25" timeLoss="95.30" rerouteNo="0" devices="tripinfo_car_up_9" vType="car" speedFactor="1.00" vaporized=""/>
    <tripinfo id="bike_up_10" depart="7.00" departLane="37339420#9_0" departPos="1.90" departSpeed="0.00" departDelay="3.00" arrival="323.00" arrivalLane="east_1_0" arrivalPos="285.95" arrivalSpeed="15.89" duration="316.00" routeLength="3271.92" waitSteps="9" timeLoss="150.69" rerouteNo="0" devices="tripinfo_bike_up_10" vType="bike" speedFactor="1.41" vaporized=""/>
    <tripinfo id="bike_down_34" depart="34.00" departLane="east_2_0" departPos="1.90" departSpeed="0.00" departDelay="3.00" arrival="336.00" arrivalLane="172899268#5_1" arrivalPos="81.64" arrivalSpeed="10.72" duration="302.00" routeLength="2552.61" waitSteps="24" timeLoss="172.63" rerouteNo="0" devices="tripinfo_bike_down_34" vType="bike" speedFactor="1.24" vaporized=""/>
    <tripinfo id="bike_down_64" depart="75.00" departLane="east_2_0" departPos="1.90" departSpeed="0.00" departDelay="3.00" arrival="338.00" arrivalLane="172899268#5_1" arrivalPos="81.64" arrivalSpeed="11.00" duration="263.00" routeLength="2552.61" waitSteps="15" timeLoss="129.18" rerouteNo="0" devices="tripinfo_bike_down_64" vType="bike" speedFactor="0.88" vaporized=""/>
    <tripinfo id="car_down_33" depart="31.00" departLane="east_2_0" departPos="5.10" departSpeed="0.00" departDelay="0.00" arrival="339.00" arrivalLane="172899268#5_1" arrivalPos="81.64" arrivalSpeed="10.43" duration="308.00" routeLength="2549.41" waitSteps="22" timeLoss="152.92" rerouteNo="0" devices="tripinfo_car_down_33" vType="car" speedFactor="1.00" vaporized=""/>
    <tripinfo id="car_right_36" depart="83.00" departLane="23081414#0_0" departPos="5.10" departSpeed="0.00" departDelay="49.00" arrival="339.00" arrivalLane="south_0" arrivalPos="658.69" arrivalSpeed="16.49" duration="256.00" routeLength="1679.70" waitSteps="64" timeLoss="150.44" rerouteNo="0" devices="tripinfo_car_right_36" vType="car" speedFactor="1.00" vaporized=""/>
    <tripinfo id="car_down_63" depart="72.00" departLane="east_2_0" departPos="5.10" departSpeed="0.00" departDelay="0.00" arrival="342.00" arrivalLane="172899268#5_1" arrivalPos="81.64" arrivalSpeed="11.16" duration="270.00" routeLength="2549.41" waitSteps="17" timeLoss="114.28" rerouteNo="0" devices="tripinfo_car_down_63" vType="car" speedFactor="1.00" vaporized=""/>
    <tripinfo id="bike_left_43" depart="66.00" departLane="462585125#2_0" departPos="1.90" departSpeed="0.00" departDelay="25.00" arrival="345.00" arrivalLane="37339420#4_0" arrivalPos="51.43" arrivalSpeed="17.46" duration="279.00" routeLength="2131.56" waitSteps="36" timeLoss="147.66" rerouteNo="0" devices="tripinfo_bike_left_43" vType="bike" speedFactor="0.63" vaporized=""/>
    <tripinfo id="bike_left_13" depart="34.00" departLane="462585125#2_0" departPos="1.90" departSpeed="0.00" departDelay="24.00" arrival="348.00" arrivalLane="37339420#4_1" arrivalPos="51.43" arrivalSpeed="19.40" duration="314.00" routeLength="2131.56" waitSteps="75" timeLoss="204.38" rerouteNo="0" devices="tripinfo_bike_left_13" vType="bike" speedFactor="1.15" vaporized=""/>
    <tripinfo id="car_left_60" depart="93.00" departLane="462585125#2_0" departPos="5.10" departSpeed="0.00" departDelay="26.00" arrival="351.00" arrivalLane="37339420#4_0" arrivalPos="51.43" arrivalSpeed="16.38" duration="258.00" routeLength="2128.36" waitSteps="32" timeLoss="127.22" rerouteNo="0" devices="tripinfo_car_left_60" vType="car" speedFactor="1.00" vaporized=""/>
    <tripinfo id="car_left_42" depart="63.00" departLane="462585125#2_0" departPos="5.10" departSpeed="0.00" departDelay="22.00" arrival="352.00" arrivalLane="37339420#4_0" arrivalPos="51.43" arrivalSpeed="16.32" duration="289.00" routeLength="2128.36" waitSteps="27" timeLoss="158.89" rerouteNo="0" devices="tripinfo_car_left_42" vType="car" speedFactor="1.00" vaporized=""/>
    <tripinfo id="car_left_24" depart="47.00" departLane="462585125#2_0" departPos="5.10" departSpeed="0.00" departDelay="25.00" arrival="353.00" arrivalLane="37339420#4_1" arrivalPos="51.43" arrivalSpeed="16.54" duration="306.00" routeLength="2128.36" waitSteps="56" timeLoss="176.22" rerouteNo="0" devices="tripinfo_car_left_24" vType="car" speedFactor="1.00" vaporized=""/>
    <tripinfo id="bus_left_2" depart="9.00" departLane="462585125#2_0" departPos="7.10" departSpeed="0.00" departDelay="9.00" arrival="367.00" arrivalLane="37339420#4_0" arrivalPos="51.43" arrivalSpeed="9.91" duration="358.00" routeLength="2126.36" waitSteps="70" timeLoss="144.78" rerouteNo="0" devices="tripinfo_bus_left_2" vType="bus" speedFactor="1.00" vaporized=""/>
    <tripinfo id="car_left_48" depart="78.00" departLane="462585125#2_0" departPos="5.10" departSpeed="0.00" departDelay="29.00" arrival="372.00" arrivalLane="37339420#4_0" arrivalPos="51.43" arrivalSpeed="16.62" duration="294.00" routeLength="2128.36" waitSteps="20" timeLoss="163.50" rerouteNo="0" devices="tripinfo_car_left_48" vType="car" speedFactor="1.00" vaporized=""/>
    <tripinfo id="bus_right_32" depart="77.00" departLane="23081414#0_0" departPos="7.10" departSpeed="0.00" departDelay="46.00" arrival="377.00" arrivalLane="south_0" arrivalPos="658.69" arrivalSpeed="9.83" duration="300.00" routeLength="1677.70" waitSteps="67" timeLoss="131.45" rerouteNo="0" devices="tripinfo_bus_right_32" vType="bus" speedFactor="1.00" vaporized=""/>
    <tripinfo id="bus_right_38" depart="93.00" departLane="23081414#0_0" departPos="7.10" departSpeed="0.00" departDelay="59.00" arrival="378.00" arrivalLane="south_1" arrivalPos="658.69" arrivalSpeed="9.95" duration="285.00" routeLength="1677.70" waitSteps="56" timeLoss="116.56" rerouteNo="0" devices="tripinfo_bus_right_38" vType="bus" speedFactor="1.00" vaporized=""/>
    <tripinfo id="car_right_45" depart="115.00" departLane="23081414#0_0" departPos="5.10" departSpeed="0.00" departDelay="71.00" arrival="380.00" arrivalLane="south_1" arrivalPos="658.69" arrivalSpeed="10.80" duration="265.00" routeLength="1679.70" waitSteps="49" timeLoss="159.32" rerouteNo="0" devices="tripinfo_car_right_45" vType="car" speedFactor="1.00" vaporized=""/>
    <tripinfo id="bike_right_37" depart="86.00" departLane="23081414#0_0" departPos="1.90" departSpeed="0.00" departDelay="52.00" arrival="380.00" arrivalLane="south_0" arrivalPos="658.69" arrivalSpeed="11.79" duration="294.00" routeLength="1682.90" waitSteps="58" timeLoss="209.80" rerouteNo="0" devices="tripinfo_bike_right_37" vType="bike" speedFactor="1.61" vaporized=""/>
    <tripinfo id="car_right_39" depart="99.00" departLane="23081414#0_0" departPos="5.10" departSpeed="0.00" departDelay="59.00" arrival="382.00" arrivalLane="south_0" arrivalPos="658.69" arrivalSpeed="12.44" duration="283.00" routeLength="1679.70" waitSteps="56" timeLoss="177.24" rerouteNo="0" devices="tripinfo_car_right_39" vType="car" speedFactor="1.00" vaporized=""/>
    <tripinfo id="bike_right_46" depart="118.00" departLane="23081414#0_0" departPos="1.90" departSpeed="0.00" departDelay="74.00" arrival="384.00" arrivalLane="south_1" arrivalPos="658.69" arrivalSpeed="10.62" duration="266.00" routeLength="1682.90" waitSteps="10" timeLoss="75.70" rerouteNo="0" devices="tripinfo_bike_right_46" vType="bike" speedFactor="0.39" vaporized=""/>
    <tripinfo id="car_right_51" depart="130.00" departLane="23081414#0_0" departPos="5.10" departSpeed="0.00" departDelay="74.00" arrival="385.00" arrivalLane="south_1" arrivalPos="658.69" arrivalSpeed="11.43" duration="255.00" routeLength="1679.70" waitSteps="12" timeLoss="149.37" rerouteNo="0" devices="tripinfo_car_right_51" vType="car" speedFactor="1.00" vaporized=""/>
    <tripinfo id="bike_right_40" depart="102.00" departLane="23081414#0_0" departPos="1.90" departSpeed="0.00" departDelay="62.00" arrival="385.00" arrivalLane="south_0" arrivalPos="658.69" arrivalSpeed="12.51" duration="283.00" routeLength="1682.90" waitSteps="51" timeLoss="189.27" rerouteNo="0" devices="tripinfo_bike_right_40" vType="bike" speedFactor="0.96" vaporized=""/>
    <tripinfo id="bus_right_41" depart="108.00" departLane="23081414#0_0" departPos="7.10" departSpeed="0.00" departDelay="68.00" arrival="388.00" arrivalLane="south_0" arrivalPos="658.69" arrivalSpeed="9.99" duration="280.00" routeLength="1677.70" waitSteps="49" timeLoss="111.64" rerouteNo="0" devices="tripinfo_bus_right_41" vType="bus" speedFactor="1.00" vaporized=""/>
    <tripinfo id="bike_right_52" depart="133.00" departLane="23081414#0_0" departPos="1.90" departSpeed="0.00" departDelay="77.00" arrival="389.00" arrivalLane="south_1" arrivalPos="658.69" arrivalSpeed="12.78" duration="256.00" routeLength="1682.90" waitSteps="9" timeLoss="146.34" rerouteNo="0" devices="tripinfo_bike_right_52" vType="bike" speedFactor="0.68" vaporized=""/>
    <tripinfo id="bus_right_47" depart="124.00" departLane="23081414#0_0" departPos="7.10" departSpeed="0.00" departDelay="80.00" arrival="390.00" arrivalLane="south_0" arrivalPos="658.69" arrivalSpeed="9.77" duration="266.00" routeLength="1677.70" waitSteps="14" timeLoss="98.02" rerouteNo="0" devices="tripinfo_bus_right_47" vType="bus" speedFactor="1.00" vaporized=""/>
    <tripinfo id="bus_up_11" depart="13.00" departLane="37339420#9_0" departPos="7.10" departSpeed="0.00" departDelay="9.00" arrival="416.00" arrivalLane="east_1_0" arrivalPos="285.95" arrivalSpeed="9.98" duration="403.00" routeLength="3266.72" waitSteps="11" timeLoss="76.23" rerouteNo="0" devices="tripinfo_bus_up_11" vType="bus" speedFactor="1.00" vaporized=""/>
    <tripinfo id="bus_down_35" depart="40.00" departLane="east_2_0" departPos="7.10" departSpeed="0.00" departDelay="9.00" arrival="423.00" arrivalLane="172899268#5_0" arrivalPos="81.64" arrivalSpeed="9.84" duration="383.00" routeLength="2547.41" waitSteps="62" timeLoss="127.82" rerouteNo="0" devices="tripinfo_bus_down_35" vType="bus" speedFactor="1.00" vaporized=""/>
    <tripinfo id="car_right_54" depart="146.00" departLane="23081414#0_0" departPos="5.10" departSpeed="0.00" departDelay="83.00" arrival="429.00" arrivalLane="south_0" arrivalPos="658.69" arrivalSpeed="16.55" duration="283.00" routeLength="1679.70" waitSteps="67" timeLoss="176.98" rerouteNo="0" devices="tripinfo_car_right_54" vType="car" speedFactor="1.00" vaporized=""/>
    <tripinfo id="bus_left_14" depart="40.00" departLane="462585125#2_0" departPos="7.10" departSpeed="0.00" departDelay="30.00" arrival="447.00" arrivalLane="37339420#4_0" arrivalPos="51.43" arrivalSpeed="9.97" duration="407.00" routeLength="2126.36" waitSteps="83" timeLoss="193.58" rerouteNo="0" devices="tripinfo_bus_left_14" vType="bus" speedFactor="1.00" vaporized=""/>
    <tripinfo id="bus_left_5" depart="24.00" departLane="462585125#2_0" departPos="7.10" departSpeed="0.00" departDelay="22.00" arrival="456.00" arrivalLane="37339420#4_0" arrivalPos="51.43" arrivalSpeed="9.98" duration="432.00" routeLength="2126.36" waitSteps="91" timeLoss="218.78" rerouteNo="0" devices="tripinfo_bus_left_5" vType="bus" speedFactor="1.00" vaporized=""/>
    <tripinfo id="car_left_93" depart="141.00" departLane="462585125#2_0" departPos="5.10" departSpeed="0.00" departDelay="21.00" arrival="458.00" arrivalLane="37339420#4_1" arrivalPos="51.43" arrivalSpeed="16.59" duration="317.00" routeLength="2128.36" waitSteps="44" timeLoss="186.44" rerouteNo="0" devices="tripinfo_car_left_93" vType="car" speedFactor="1.00" vaporized=""/>
    <tripinfo id="car_left_96" depart="156.00" departLane="462585125#2_0" departPos="5.10" departSpeed="0.00" departDelay="33.00" arrival="461.00" arrivalLane="37339420#4_1" arrivalPos="51.43" arrivalSpeed="16.28" duration="305.00" routeLength="2128.36" waitSteps="36" timeLoss="175.25" rerouteNo="0" devices="tripinfo_car_left_96" vType="car" speedFactor="1.00" vaporized=""/>
    <tripinfo id="bike_left_97" depart="159.00" departLane="462585125#2_0" departPos="1.90" departSpeed="0.00" departDelay="36.00" arrival="465.00" arrivalLane="37339420#4_1" arrivalPos="51.43" arrivalSpeed="17.15" duration="306.00" routeLength="2131.56" waitSteps="33" timeLoss="195.23" rerouteNo="0" devices="tripinfo_bike_left_97" vType="bike" speedFactor="0.97" vaporized=""/>
    <tripinfo id="bus_right_53" depart="139.00" departLane="23081414#0_0" departPos="7.10" departSpeed="0.00" departDelay="83.00" arrival="466.00" arrivalLane="south_0" arrivalPos="658.69" arrivalSpeed="9.76" duration="327.00" routeLength="1677.70" waitSteps="72" timeLoss="159.24" rerouteNo="0" devices="tripinfo_bus_right_53" vType="bus" speedFactor="1.00" vaporized=""/>
    <tripinfo id="bus_left_26" depart="56.00" departLane="462585125#2_0" departPos="7.10" departSpeed="0.00" departDelay="34.00" arrival="467.00" arrivalLane="37339420#4_0" arrivalPos="51.43" arrivalSpeed="9.85" duration="411.00" routeLength="2126.36" waitSteps="80" timeLoss="197.74" rerouteNo="0" devices="tripinfo_bus_left_26" vType="bus" speedFactor="1.00" vaporized=""/>
    <tripinfo id="bike_left_100" depart="175.00" departLane="462585125#2_0" departPos="1.90" departSpeed="0.00" departDelay="50.00" arrival="467.00" arrivalLane="37339420#4_1" arrivalPos="51.43" arrivalSpeed="18.17" duration="292.00" routeLength="2131.56" waitSteps="33" timeLoss="182.14" rerouteNo="0" devices="tripinfo_bike_left_100" vType="bike" speedFactor="1.10" vaporized=""/>
    <tripinfo id="bus_right_56" depart="156.00" departLane="23081414#0_0" departPos="7.10" departSpeed="0.00" departDelay="93.00" arrival="468.00" arrivalLane="south_1" arrivalPos="658.69" arrivalSpeed="9.93" duration="312.00" routeLength="1677.70" waitSteps="58" timeLoss="143.69" rerouteNo="0" devices="tripinfo_bus_right_56" vType="bus" speedFactor="1.00" vaporized=""/>
    <tripinfo id="bike_left_94" depart="144.00" departLane="462585125#2_0" departPos="1.90" departSpeed="0.00" departDelay="24.00" arrival="470.00" arrivalLane="37339420#4_1" arrivalPos="51.43" arrivalSpeed="19.91" duration="326.00" routeLength="2131.56" waitSteps="45" timeLoss="219.01" rerouteNo="0" devices="tripinfo_bike_left_94" vType="bike" speedFactor="1.86" vaporized=""/>
    <tripinfo id="bike_right_55" depart="149.00" departLane="23081414#0_0" departPos="1.90" departSpeed="0.00" departDelay="86.00" arrival="470.00" arrivalLane="south_0" arrivalPos="658.69" arrivalSpeed="12.77" duration="321.00" routeLength="1682.90" waitSteps="57" timeLoss="236.52" rerouteNo="0" devices="tripinfo_bike_right_55" vType="bike" speedFactor="1.79" vaporized=""/>
    <tripinfo id="car_right_57" depart="162.00" departLane="23081414#0_0" departPos="5.10" departSpeed="0.00" departDelay="98.00" arrival="471.00" arrivalLane="south_0" arrivalPos="658.69" arrivalSpeed="12.05" duration="309.00" routeLength="1679.70" waitSteps="53" timeLoss="203.79" rerouteNo="0" devices="tripinfo_car_right_57" vType="car" speedFactor="1.00" vaporized=""/>
    <tripinfo id="bike_right_58" depart="165.00" departLane="23081414#0_0" departPos="1.90" departSpeed="0.00" departDelay="101.00" arrival="472.00" arrivalLane="south_1" arrivalPos="658.69" arrivalSpeed="12.32" duration="307.00" routeLength="1682.90" waitSteps="47" timeLoss="216.29" rerouteNo="0" devices="tripinfo_bike_right_58" vType="bike" speedFactor="1.09" vaporized=""/>
    <tripinfo id="car_right_69" depart="178.00" departLane="23081414#0_0" departPos="5.10" departSpeed="0.00" departDelay="97.00" arrival="473.00" arrivalLane="south_1" arrivalPos="658.69" arrivalSpeed="12.19" duration="295.00" routeLength="1679.70" waitSteps="45" timeLoss="189.44" rerouteNo="0" devices="tripinfo_car_right_69" vType="car" speedFactor="1.00" vaporized=""/>
    <tripinfo id="bus_right_59" depart="171.00" departLane="23081414#0_0" departPos="7.10" departSpeed="0.00" departDelay="107.00" arrival="474.00" arrivalLane="south_0" arrivalPos="658.69" arrivalSpeed="9.85" duration="303.00" routeLength="1677.70" waitSteps="48" timeLoss="134.83" rerouteNo="0" devices="tripinfo_bus_right_59" vType="bus" speedFactor="1.00" vaporized=""/>
    <tripinfo id="car_right_75" depart="194.00" departLane="23081414#0_0" departPos="5.10" departSpeed="0.00" departDelay="102.00" arrival="475.00" arrivalLane="south_1" arrivalPos="658.69" arrivalSpeed="12.73" duration="281.00" routeLength="1679.70" waitSteps="36" timeLoss="175.18" rerouteNo="0" devices="tripinfo_car_right_75" vType="car" speedFactor="1.00" vaporized=""/>
    <tripinfo id="car_right_87" depart="209.00" departLane="23081414#0_0" departPos="5.10" departSpeed="0.00" departDelay="94.00" arrival="477.00" arrivalLane="south_1" arrivalPos="658.69" arrivalSpeed="13.11" duration="268.00" routeLength="1679.70" waitSteps="17" timeLoss="161.94" rerouteNo="0" devices="tripinfo_car_right_87" vType="car" speedFactor="1.00" vaporized=""/>
    <tripinfo id="bike_right_70" depart="181.00" departLane="23081414#0_0" departPos="1.90" departSpeed="0.00" departDelay="100.00" arrival="478.00" arrivalLane="south_0" arrivalPos="658.69" arrivalSpeed="9.86" duration="297.00" routeLength="1682.90" waitSteps="38" timeLoss="92.54" rerouteNo="0" devices="tripinfo_bike_right_70" vType="bike" speedFactor="0.36" vaporized=""/>
    <tripinfo id="bike_right_76" depart="197.00" departLane="23081414#0_0" departPos="1.90" departSpeed="0.00" departDelay="105.00" arrival="480.00" arrivalLane="south_1" arrivalPos="658.69" arrivalSpeed="13.51" duration="283.00" routeLength="1682.90" waitSteps="26" timeLoss="180.77" rerouteNo="0" devices="tripinfo_bike_right_76" vType="bike" speedFactor="0.74" vaporized=""/>
    <tripinfo id="bus_right_71" depart="187.00" departLane="23081414#0_0" departPos="7.10" departSpeed="0.00" departDelay="106.00" arrival="480.00" arrivalLane="south_0" arrivalPos="658.69" arrivalSpeed="9.84" duration="293.00" routeLength="1677.70" waitSteps="37" timeLoss="124.76" rerouteNo="0" devices="tripinfo_bus_right_71" vType="bus" speedFactor="1.00" vaporized=""/>
    <tripinfo id="car_up_18" depart="19.00" departLane="37339420#9_0" departPos="5.10" departSpeed="0.00" departDelay="3.00" arrival="492.00" arrivalLane="east_1_0" arrivalPos="285.95" arrivalSpeed="13.68" duration="473.00" routeLength="3268.72" waitSteps="142" timeLoss="253.45" rerouteNo="0" devices="tripinfo_car_up_18" vType="car" speedFactor="1.00" vaporized=""/>
    <tripinfo id="bike_right_88" depart="212.00" departLane="23081414#0_0" departPos="1.90" departSpeed="0.00" departDelay="97.00" arrival="513.00" arrivalLane="south_0" arrivalPos="658.69" arrivalSpeed="20.00" duration="301.00" routeLength="1682.90" waitSteps="70" timeLoss="216.86" rerouteNo="0" devices="tripinfo_bike_right_88" vType="bike" speedFactor="1.77" vaporized=""/>
    <tripinfo id="bike_down_79" depart="107.00" departLane="east_2_0" departPos="1.90" departSpeed="0.00" departDelay="9.00" arrival="515.00" arrivalLane="172899268#5_1" arrivalPos="81.64" arrivalSpeed="10.63" duration="408.00" routeLength="2552.61" waitSteps="60" timeLoss="280.54" rerouteNo="0" devices="tripinfo_bike_down_79" vType="bike" speedFactor="1.66" vaporized=""/>
    <tripinfo id="bike_down_127" depart="152.00" departLane="east_2_0" departPos="1.90" departSpeed="0.00" departDelay="3.00" arrival="517.00" arrivalLane="172899268#5_1" arrivalPos="81.64" arrivalSpeed="10.87" duration="365.00" routeLength="2552.61" waitSteps="78" timeLoss="235.83" rerouteNo="0" devices="tripinfo_bike_down_127" vType="bike" speedFactor="1.22" vaporized=""/>
    <tripinfo id="car_down_126" depart="149.00" departLane="east_2_0" departPos="5.10" departSpeed="0.00" departDelay="0.00" arrival="519.00" arrivalLane="172899268#5_1" arrivalPos="81.64" arrivalSpeed="11.47" duration="370.00" routeLength="2549.41" waitSteps="79" timeLoss="214.67" rerouteNo="0" devices="tripinfo_car_down_126" vType="car" speedFactor="1.00" vaporized=""/>
    <tripinfo id="bike_down_73" depart="91.00" departLane="east_2_0" departPos="1.90" departSpeed="0.00" departDelay="6.00" arrival="524.00" arrivalLane="172899268#5_1" arrivalPos="81.64" arrivalSpeed="10.65" duration="433.00" routeLength="2552.61" waitSteps="96" timeLoss="265.11" rerouteNo="0" devices="tripinfo_bike_down_73" vType="bike" speedFactor="0.59" vaporized=""/>
    <tripinfo id="bike_left_67" depart="113.00" departLane="462585125#2_0" departPos="1.90" departSpeed="0.00" departDelay="39.00" arrival="529.00" arrivalLane="37339420#4_0" arrivalPos="51.43" arrivalSpeed="12.40" duration="416.00" routeLength="2131.56" waitSteps="111" timeLoss="229.73" rerouteNo="0" devices="tripinfo_bike_left_67" vType="bike" speedFactor="0.45" vaporized=""/>
    <tripinfo id="bike_left_49" depart="81.00" departLane="462585125#2_0" departPos="1.90" departSpeed="0.00" departDelay="32.00" arrival="537.00" arrivalLane="37339420#4_1" arrivalPos="51.43" arrivalSpeed="17.33" duration="456.00" routeLength="2131.56" waitSteps="70" timeLoss="338.09" rerouteNo="0" devices="tripinfo_bike_left_49" vType="bike" speedFactor="0.71" vaporized=""/>
    <tripinfo id="bus_left_44" depart="72.00" departLane="462585125#2_0" departPos="7.10" departSpeed="0.00" departDelay="31.00" arrival="539.00" arrivalLane="37339420#4_0" arrivalPos="51.43" arrivalSpeed="9.81" duration="467.00" routeLength="2126.36" waitSteps="112" timeLoss="254.02" rerouteNo="0" devices="tripinfo_bus_left_44" vType="bus" speedFactor="1.00" vaporized=""/>
    <tripinfo id="bike_left_91" depart="129.00" departLane="462585125#2_0" departPos="1.90" departSpeed="0.00" departDelay="12.00" arrival="539.00" arrivalLane="37339420#4_1" arrivalPos="51.43" arrivalSpeed="17.56" duration="410.00" routeLength="2131.56" waitSteps="83" timeLoss="299.40" rerouteNo="0" devices="tripinfo_bike_left_91" vType="bike" speedFactor="1.03" vaporized=""/>