<?xml version="1.0" encoding="UTF-8"?>

<!-- generated on Mon 07 May 2018 03:50:42 PM IST by SUMO gui Version 0.32.0
<?xml version="1.0" encoding="UTF-8"?>

<configuration xmlns:xsi="http://www.w3.org/2001/XMLSchema-instance" xsi:noNamespaceSchemaLocation="http://sumo.dlr.de/xsd/sumoConfiguration.xsd">

    <input>
        <net-file value="data/ijipura.net.xml"/>
        <route-files value="data/cross.rou.xml"/>
        <additional-files value="data/cross.det.xml,data/ijipura.poly.xml"/>
    </input>

    <output>
        <tripinfo-output value="tripinfo.xml"/>
    </output>

    <time>
        <begin value="0"/>
    </time>

    <report>
        <verbose value="true"/>
        <no-step-log value="true"/>
    </report>

    <traci_server>
        <remote-port value="55227"/>
    </traci_server>

</configuration>
-->

<detector xmlns:xsi="http://www.w3.org/2001/XMLSchema-instance" xsi:noNamespaceSchemaLocation="http://sumo.dlr.de/xsd/det_e1_file.xsd">
    <interval begin="0.00" end="30.00" id="0" nVehContrib="0" flow="0.00" occupancy="0.00" speed="-1.00" length="-1.00" nVehEntered="0"/>
    <interval begin="30.00" end="60.00" id="0" nVehContrib="0" flow="0.00" occupancy="24.29" speed="-1.00" length="-1.00" nVehEntered="1"/>
    <interval begin="60.00" end="90.00" id="0" nVehContrib="3" flow="360.00" occupancy="45.19" speed="1.68" length="4.60" nVehEntered="2"/>
    <interval begin="90.00" end="120.00" id="0" nVehContrib="2" flow="240.00" occupancy="1.75" speed="12.67" length="3.40" nVehEntered="2"/>
    <interval begin="120.00" end="150.00" id="0" nVehContrib="7" flow="840.00" occupancy="30.33" speed="4.39" length="4.94" nVehEntered="7"/>
    <interval begin="150.00" end="180.00" id="0" nVehContrib="4" flow="480.00" occupancy="67.66" speed="2.23" length="4.70" nVehEntered="5"/>
    <interval begin="180.00" end="210.00" id="0" nVehContrib="2" flow="240.00" occupancy="2.44" speed="7.07" length="4.40" nVehEntered="1"/>
    <interval begin="210.00" end="240.00" id="0" nVehContrib="2" flow="240.00" occupancy="1.80" speed="12.44" length="3.40" nVehEntered="2"/>
    <interval begin="240.00" end="270.00" id="0" nVehContrib="2" flow="240.00" occupancy="81.77" speed="1.50" length="6.00" nVehEntered="3"/>
    <interval begin="270.00" end="300.00" id="0" nVehContrib="7" flow="840.00" occupancy="19.32" speed="4.85" length="4.20" nVehEntered="6"/>
    <interval begin="300.00" end="330.00" id="0" nVehContrib="5" flow="600.00" occupancy="25.34" speed="3.82" length="5.16" nVehEntered="5"/>
    <interval begin="330.00" end="360.00" id="0" nVehContrib="3" flow="360.00" occupancy="25.01" speed="3.97" length="4.60" nVehEntered="3"/>
    <interval begin="360.00" end="390.00" id="0" nVehContrib="4" flow="480.00" occupancy="10.53" speed="6.14" length="3.90" nVehEntered="5"/>
    <interval begin="390.00" end="420.00" id="0" nVehContrib="1" flow="120.00" occupancy="11.05" speed="2.11" length="7.00" nVehEntered="1"/>
    <interval begin="420.00" end="450.00" id="0" nVehContrib="0" flow="0.00" occupancy="0.00" speed="-1.00" length="-1.00" nVehEntered="0"/>
    <interval begin="450.00" end="480.00" id="0" nVehContrib="3" flow="360.00" occupancy="4.19" speed="11.48" length="4.60" nVehEntered="3"/>
    <interval begin="480.00" end="510.00" id="0" nVehContrib="3" flow="360.00" occupancy="52.84" speed="1.77" length="4.60" nVehEntered="3"/>
    <interval begin="510.00" end="540.00" id="0" nVehContrib="5" flow="600.00" occupancy="12.14" speed="6.55" length="4.12" nVehEntered="5"/>
    <interval begin="540.00" end="570.00" id="0" nVehContrib="5" flow="600.00" occupancy="26.55" speed="3.68" length="5.16" nVehEntered="5"/>
    <interval begin="570.00" end="600.00" id="0" nVehContrib="4" flow="480.00" occupancy="10.07" speed="5.06" length="3.90" nVehEntered="4"/>
    <interval begin="600.00" end="630.00" id="0" nVehContrib="9" flow="1080.00" occupancy="36.32" speed="4.22" length="4.60" nVehEntered="9"/>
    <interval begin="630.00" end="660.00" id="0" nVehContrib="3" flow="360.00" occupancy="17.37" speed="3.02" length="4.60" nVehEntered="3"/>
    <interval begin="660.00" end="690.00" id="0" nVehContrib="4" flow="480.00" occupancy="14.30" speed="4.85" length="5.20" nVehEntered="4"/>
    <interval begin="690.00" end="720.00" id="0" nVehContrib="0" flow="0.00" occupancy="0.00" speed="-1.00" length="-1.00" nVehEntered="0"/>
    <interval begin="720.00" end="750.00" id="0" nVehContrib="2" flow="240.00" occupancy="37.06" speed="1.05" length="3.40" nVehEntered="3"/>
    <interval begin="750.00" end="780.00" id="0" nVehContrib="3" flow="360.00" occupancy="2.37" speed="605.55" length="4.60" nVehEntered="2"/>
    <interval begin="780.00" end="810.00" id="0" nVehContrib="3" flow="360.00" occupancy="12.57" speed="8.61" length="4.60" nVehEntered="3"/>
    <interval begin="810.00" end="840.00" id="0" nVehContrib="0" flow="0.00" occupancy="70.72" speed="-1.00" length="-1.00" nVehEntered="1"/>
    <interval begin="840.00" end="870.00" id="0" nVehContrib="6" flow="720.00" occupancy="26.90" speed="3.28" length="4.60" nVehEntered="6"/>
    <interval begin="870.00" end="900.00" id="0" nVehContrib="4" flow="480.00" occupancy="75.88" speed="2.41" length="5.20" nVehEntered="3"/>
    <interval begin="900.00" end="930.00" id="0" nVehContrib="3" flow="360.00" occupancy="9.92" speed="4.55" length="4.60" nVehEntered="3"/>
    <interval begin="930.00" end="960.00" id="0" nVehContrib="0" flow="0.00" occupancy="0.00" speed="-1.00" length="-1.00" nVehEntered="0"/>
    <interval begin="960.00" end="990.00" id="0" nVehContrib="2" flow="240.00" occupancy="72.98" speed="1.05" length="3.40" nVehEntered="3"/>
    <interval begin="990.00" end="1020.00" id="0" nVehContrib="3" flow="360.00" occupancy="26.82" speed="8.72" length="4.60" nVehEntered="3"/>
    <interval begin="1020.00" end="1050.00" id="0" nVehContrib="6" flow="720.00" occupancy="57.74" speed="3.20" length="4.60" nVehEntered="5"/>
    <interval begin="1050.00" end="1080.00" id="0" nVehContrib="3" flow="360.00" occupancy="17.77" speed="5.17" length="4.60" nVehEntered="4"/>
    <interval begin="1080.00" end="1110.00" id="0" nVehContrib="8" flow="960.00" occupancy="39.14" speed="3.21" length="4.30" nVehEntered="7"/>
    <interval begin="1110.00" end="1140.00" id="0" nVehContrib="3" flow="360.00" occupancy="18.04" speed="2.98" length="4.60" nVehEntered="3"/>
    <interval begin="1140.00" end="1170.00" id="0" nVehContrib="4" flow="480.00" occupancy="13.89" speed="5.05" length="5.20" nVehEntered="4"/>
    <interval begin="1170.00" end="1200.00" id="0" nVehContrib="4" flow="480.00" occupancy="5.98" speed="10.83" length="4.70" nVehEntered="4"/>
    <interval begin="1200.00" end="1230.00" id="0" nVehContrib="2" flow="240.00" occupancy="13.30" speed="2.26" length="4.40" nVehEntered="2"/>
    <interval begin="1230.00" end="1260.00" id="0" nVehContrib="8" flow="960.00" occupancy="27.28" speed="4.23" length="4.30" nVehEntered="8"/>
    <interval begin="1260.00" end="1290.00" id="0" nVehContrib="5" flow="600.00" occupancy="25.40" speed="3.66" length="5.16" nVehEntered="5"/>
    <interval begin="1290.00" end="1320.00" id="0" nVehContrib="1" flow="120.00" occupancy="2.93" speed="2.05" length="1.80" nVehEntered="1"/>
    <interval begin="1320.00" end="1350.00" id="0" nVehContrib="7" flow="840.00" occupancy="50.95" speed="4.09" length="4.94" nVehEntered="8"/>
    <interval begin="1350.00" end="1380.00" id="0" nVehContrib="4" flow="480.00" occupancy="67.92" speed="2.05" length="4.70" nVehEntered="3"/>
    <interval begin="1380.00" end="1410.00" id="0" nVehContrib="5" flow="600.00" occupancy="68.33" speed="5.14" length="4.52" nVehEntered="6"/>
    <interval begin="1410.00" end="1440.00" id="0" nVehContrib="8" flow="960.00" occupancy="41.71" speed="3.10" length="4.30" nVehEntered="7"/>
    <interval begin="1440.00" end="1470.00" id="0" nVehContrib="2" flow="240.00" occupancy="84.09" speed="1.48" length="6.00" nVehEntered="2"/>
    <interval begin="1470.00" end="1500.00" id="0" nVehContrib="4" flow="480.00" occupancy="13.21" speed="5.31" length="3.90" nVehEntered="4"/>
    <interval begin="1500.00" end="1530.00" id="0" nVehContrib="4" flow="480.00" occupancy="20.21" speed="4.73" length="5.20" nVehEntered="4"/>
    <interval begin="1530.00" end="1560.00" id="0" nVehContrib="1" flow="120.00" occupancy="67.47" speed="0.25" length="5.00" nVehEntered="2"/>
    <interval begin="1560.00" end="1590.00" id="0" nVehContrib="7" flow="840.00" occupancy="37.39" speed="4.11" length="4.20" nVehEntered="7"/>
    <interval begin="1590.00" end="1620.00" id="0" nVehContrib="4" flow="480.00" occupancy="75.19" speed="2.35" length="5.20" nVehEntered="3"/>
    <interval begin="1620.00" end="1650.00" id="0" nVehContrib="5" flow="600.00" occupancy="14.98" speed="4.46" length="4.12" nVehEntered="5"/>
    <interval begin="1650.00" end="1680.00" id="0" nVehContrib="7" flow="840.00" occupancy="30.05" speed="4.45" length="4.94" nVehEntered="8"/>
    <interval begin="1680.00" end="1710.00" id="0" nVehContrib="3" flow="360.00" occupancy="15.03" speed="4.42" length="4.60" nVehEntered="2"/>
    <interval begin="1710.00" end="1740.00" id="0" nVehContrib="6" flow="720.00" occupancy="21.00" speed="4.46" length="4.60" nVehEntered="6"/>
    <interval begin="1740.00" end="1770.00" id="0" nVehContrib="6" flow="720.00" occupancy="47.69" speed="4.10" length="4.60" nVehEntered="6"/>
    <interval begin="1770.00" end="1800.00" id="0" nVehContrib="2" flow="240.00" occupancy="3.92" speed="6.35" length="3.40" nVehEntered="2"/>
    <interval begin="1800.00" end="1830.00" id="0" nVehContrib="9" flow="1080.00" occupancy="35.26" speed="4.14" length="4.60" nVehEntered="9"/>
    <interval begin="1830.00" end="1860.00" id="0" nVehContrib="3" flow="360.00" occupancy="18.11" speed="2.91" length="4.60" nVehEntered="3"/>
    <interval begin="1860.00" end="1890.00" id="0" nVehContrib="4" flow="480.00" occupancy="72.99" speed="4.81" length="5.20" nVehEntered="5"/>
    <interval begin="1890.00" end="1920.00" id="0" nVehContrib="8" flow="960.00" occupancy="41.46" speed="3.84" length="4.95" nVehEntered="8"/>
    <interval begin="1920.00" end="1950.00" id="0" nVehContrib="3" flow="360.00" occupancy="15.27" speed="3.67" length="4.60" nVehEntered="3"/>
    <interval begin="1950.00" end="1980.00" id="0" nVehContrib="8" flow="960.00" occupancy="24.36" speed="4.47" length="4.30" nVehEntered="7"/>
    <interval begin="1980.00" end="2010.00" id="0" nVehContrib="5" flow="600.00" occupancy="26.87" speed="3.52" length="5.16" nVehEntered="5"/>
    <interval begin="2010.00" end="2040.00" id="0" nVehContrib="4" flow="480.00" occupancy="11.19" speed="4.53" length="3.90" nVehEntered="4"/>
    <interval begin="2040.00" end="2070.00" id="0" nVehContrib="7" flow="840.00" occupancy="49.39" speed="4.00" length="4.94" nVehEntered="8"/>
    <interval begin="2070.00" end="2100.00" id="0" nVehContrib="5" flow="600.00" occupancy="69.07" speed="2.77" length="4.12" nVehEntered="4"/>
    <interval begin="2100.00" end="2130.00" id="0" nVehContrib="1" flow="120.00" occupancy="58.71" speed="4.90" length="7.00" nVehEntered="2"/>
    <interval begin="2130.00" end="2160.00" id="0" nVehContrib="6" flow="720.00" occupancy="32.60" speed="4.53" length="5.13" nVehEntered="5"/>
    <interval begin="2160.00" end="2190.00" id="0" nVehContrib="2" flow="240.00" occupancy="13.00" speed="900.98" length="4.40" nVehEntered="3"/>
    <interval begin="2190.00" end="2220.00" id="0" nVehContrib="5" flow="600.00" occupancy="35.19" speed="5.46" length="4.12" nVehEntered="5"/>
    <interval begin="2220.00" end="2250.00" id="0" nVehContrib="6" flow="720.00" occupancy="60.33" speed="3.02" length="4.60" nVehEntered="5"/>
    <interval begin="2250.00" end="2280.00" id="0" nVehContrib="3" flow="360.00" occupancy="9.42" speed="4.66" length="4.60" nVehEntered="3"/>
    <interval begin="2280.00" end="2310.00" id="0" nVehContrib="4" flow="480.00" occupancy="40.74" speed="2.62" length="5.20" nVehEntered="4"/>
    <interval begin="2310.00" end="2340.00" id="0" nVehContrib="5" flow="600.00" occupancy="45.49" speed="3.07" length="4.12" nVehEntered="5"/>
    <interval begin="2340.00" end="2370.00" id="0" nVehContrib="1" flow="120.00" occupancy="2.42" speed="9.64" length="7.00" nVehEntered="1"/>
    <interval begin="2370.00" end="2400.00" id="0" nVehContrib="0" flow="0.00" occupancy="0.00" speed="-1.00" length="-1.00" nVehEntered="0"/>
    <interval begin="2400.00" end="2430.00" id="0" nVehContrib="2" flow="240.00" occupancy="1.88" speed="11.96" length="3.40" nVehEntered="2"/>
    <interval begin="2430.00" end="2460.00" id="0" nVehContrib="1" flow="120.00" occupancy="2.38" speed="9.81" length="7.00" nVehEntered="1"/>
    <interval begin="2460.00" end="2490.00" id="0" nVehContrib="2" flow="240.00" occupancy="1.96" speed="11.08" length="3.40" nVehEntered="2"/>
    <interval begin="2490.00" end="2520.00" id="0" nVehContrib="0" flow="0.00" occupancy="74.47" speed="-1.00" length="-1.00" nVehEntered="1"/>
    <interval begin="2520.00" end="2550.00" id="0" nVehContrib="7" flow="840.00" occupancy="33.34" speed="3.64" length="4.94" nVehEntered="7"/>
    <interval begin="2550.00" end="2580.00" id="0" nVehContrib="4" flow="480.00" occupancy="69.62" speed="2.26" length="4.70" nVehEntered="3"/>
    <interval begin="2580.00" end="2610.00" id="0" nVehContrib="4" flow="480.00" occupancy="60.78" speed="4.95" length="3.90" nVehEntered="5"/>
    <interval begin="2610.00" end="2630.00" id="0" nVehContrib="1" flow="180.00" occupancy="30.53" speed="0.33" length="7.00" nVehEntered="0"/>
</detector>
