<?xml version="1.0" encoding="UTF-8"?>

<!-- generated on Tuesday 01 May 2018 05:29:38 PM IST by SUMO gui Version 0.32.0
<?xml version="1.0" encoding="UTF-8"?>

<configuration xmlns:xsi="http://www.w3.org/2001/XMLSchema-instance" xsi:noNamespaceSchemaLocation="http://sumo.dlr.de/xsd/sumoConfiguration.xsd">

    <input>
        <net-file value="data/ijipura.net.xml"/>
        <route-files value="data/cross.rou.xml"/>
        <additional-files value="data/cross.det.xml,data/ijipura.poly.xml"/>
    </input>

    <output>
        <tripinfo-output value="tripinfo.xml"/>
    </output>

    <time>
        <begin value="0"/>
    </time>

    <report>
        <verbose value="true"/>
        <no-step-log value="true"/>
    </report>

    <traci_server>
        <remote-port value="41243"/>
    </traci_server>

</configuration>
-->

<tripinfos xmlns:xsi="http://www.w3.org/2001/XMLSchema-instance" xsi:noNamespaceSchemaLocation="http://sumo.dlr.de/xsd/tripinfo_file.xsd">
    <tripinfo id="car_left_0" depart="0.00" departLane="2o_0" departPos="5.10" departSpeed="0.00" departDelay="0.00" arrival="26.00" arrivalLane="1i_0" arrivalPos="91.45" arrivalSpeed="13.84" duration="26.00" routeLength="202.76" waitSteps="0" timeLoss="10.71" rerouteNo="0" devices="tripinfo_car_left_0" vType="car" speedFactor="1.00" vaporized=""/>
    <tripinfo id="car_right_6" depart="3.00" departLane="1o_0" departPos="5.10" departSpeed="0.00" departDelay="0.00" arrival="29.00" arrivalLane="2i_0" arrivalPos="99.28" arrivalSpeed="13.57" duration="26.00" routeLength="202.57" waitSteps="0" timeLoss="11.10" rerouteNo="0" devices="tripinfo_car_right_6" vType="car" speedFactor="1.00" vaporized=""/>
    <tripinfo id="bike_left_1" depart="3.00" departLane="2o_0" departPos="1.90" departSpeed="0.00" departDelay="3.00" arrival="30.00" arrivalLane="1i_0" arrivalPos="91.45" arrivalSpeed="14.72" duration="27.00" routeLength="205.96" waitSteps="0" timeLoss="14.92" rerouteNo="0" devices="tripinfo_bike_left_1" vType="bike" speedFactor="1.30" vaporized=""/>
    <tripinfo id="bike_right_7" depart="6.00" departLane="1o_0" departPos="1.90" departSpeed="0.00" departDelay="3.00" arrival="33.00" arrivalLane="2i_0" arrivalPos="99.28" arrivalSpeed="14.30" duration="27.00" routeLength="205.77" waitSteps="0" timeLoss="12.35" rerouteNo="0" devices="tripinfo_bike_right_7" vType="bike" speedFactor="1.05" vaporized=""/>
    <tripinfo id="bus_left_2" depart="9.00" departLane="2o_0" departPos="7.10" departSpeed="0.00" departDelay="9.00" arrival="42.00" arrivalLane="1i_0" arrivalPos="91.45" arrivalSpeed="9.78" duration="33.00" routeLength="200.76" waitSteps="0" timeLoss="12.39" rerouteNo="0" devices="tripinfo_bus_left_2" vType="bus" speedFactor="1.00" vaporized=""/>
    <tripinfo id="car_left_3" depart="15.00" departLane="2o_0" departPos="5.10" departSpeed="0.00" departDelay="13.00" arrival="44.00" arrivalLane="1i_0" arrivalPos="91.45" arrivalSpeed="11.42" duration="29.00" routeLength="202.76" waitSteps="0" timeLoss="13.85" rerouteNo="0" devices="tripinfo_car_left_3" vType="car" speedFactor="1.00" vaporized=""/>
    <tripinfo id="bus_right_8" depart="12.00" departLane="1o_0" departPos="7.10" departSpeed="0.00" departDelay="9.00" arrival="45.00" arrivalLane="2i_0" arrivalPos="99.28" arrivalSpeed="9.77" duration="33.00" routeLength="200.57" waitSteps="0" timeLoss="12.78" rerouteNo="0" devices="tripinfo_bus_right_8" vType="bus" speedFactor="1.00" vaporized=""/>
    <tripinfo id="car_right_15" depart="18.00" departLane="1o_0" departPos="5.10" departSpeed="0.00" departDelay="7.00" arrival="47.00" arrivalLane="2i_0" arrivalPos="99.28" arrivalSpeed="10.78" duration="29.00" routeLength="202.57" waitSteps="0" timeLoss="14.20" rerouteNo="0" devices="tripinfo_car_right_15" vType="car" speedFactor="1.00" vaporized=""/>
    <tripinfo id="bike_right_16" depart="21.00" departLane="1o_0" departPos="1.90" departSpeed="0.00" departDelay="10.00" arrival="48.00" arrivalLane="2i_1" arrivalPos="99.28" arrivalSpeed="16.22" duration="27.00" routeLength="205.77" waitSteps="0" timeLoss="14.21" rerouteNo="0" devices="tripinfo_bike_right_16" vType="bike" speedFactor="1.23" vaporized=""/>
    <tripinfo id="bike_left_4" depart="18.00" departLane="2o_0" departPos="1.90" departSpeed="0.00" departDelay="16.00" arrival="48.00" arrivalLane="1i_0" arrivalPos="91.45" arrivalSpeed="9.33" duration="30.00" routeLength="205.96" waitSteps="0" timeLoss="8.45" rerouteNo="0" devices="tripinfo_bike_left_4" vType="bike" speedFactor="0.69" vaporized=""/>
    <tripinfo id="bus_left_5" depart="25.00" departLane="2o_0" departPos="7.10" departSpeed="0.00" departDelay="23.00" arrival="58.00" arrivalLane="1i_0" arrivalPos="91.45" arrivalSpeed="9.94" duration="33.00" routeLength="200.76" waitSteps="0" timeLoss="12.43" rerouteNo="0" devices="tripinfo_bus_left_5" vType="bus" speedFactor="1.00" vaporized=""/>
    <tripinfo id="car_left_12" depart="31.00" departLane="2o_0" departPos="5.10" departSpeed="0.00" departDelay="21.00" arrival="60.00" arrivalLane="1i_0" arrivalPos="91.45" arrivalSpeed="11.51" duration="29.00" routeLength="202.76" waitSteps="0" timeLoss="13.88" rerouteNo="0" devices="tripinfo_car_left_12" vType="car" speedFactor="1.00" vaporized=""/>
    <tripinfo id="bike_left_13" depart="34.00" departLane="2o_0" departPos="1.90" departSpeed="0.00" departDelay="24.00" arrival="61.00" arrivalLane="1i_1" arrivalPos="91.45" arrivalSpeed="14.68" duration="27.00" routeLength="205.96" waitSteps="0" timeLoss="14.07" rerouteNo="0" devices="tripinfo_bike_left_13" vType="bike" speedFactor="1.15" vaporized=""/>
    <tripinfo id="car_right_21" depart="35.00" departLane="1o_0" departPos="5.10" departSpeed="0.00" departDelay="13.00" arrival="62.00" arrivalLane="2i_1" arrivalPos="99.28" arrivalSpeed="13.54" duration="27.00" routeLength="202.57" waitSteps="0" timeLoss="12.20" rerouteNo="0" devices="tripinfo_car_right_21" vType="car" speedFactor="1.00" vaporized=""/>
    <tripinfo id="bus_right_17" depart="28.00" departLane="1o_0" departPos="7.10" departSpeed="0.00" departDelay="17.00" arrival="63.00" arrivalLane="2i_0" arrivalPos="99.28" arrivalSpeed="9.77" duration="35.00" routeLength="200.57" waitSteps="0" timeLoss="14.70" rerouteNo="0" devices="tripinfo_bus_right_17" vType="bus" speedFactor="1.00" vaporized=""/>
    <tripinfo id="bike_right_22" depart="38.00" departLane="1o_0" departPos="1.90" departSpeed="0.00" departDelay="16.00" arrival="68.00" arrivalLane="2i_0" arrivalPos="99.28" arrivalSpeed="9.53" duration="30.00" routeLength="205.77" waitSteps="0" timeLoss="8.46" rerouteNo="0" devices="tripinfo_bike_right_22" vType="bike" speedFactor="0.69" vaporized=""/>
    <tripinfo id="bus_left_14" depart="40.00" departLane="2o_0" departPos="7.10" departSpeed="0.00" departDelay="30.00" arrival="73.00" arrivalLane="1i_0" arrivalPos="91.45" arrivalSpeed="9.77" duration="33.00" routeLength="200.76" waitSteps="0" timeLoss="12.25" rerouteNo="0" devices="tripinfo_bus_left_14" vType="bus" speedFactor="1.00" vaporized=""/>
    <tripinfo id="car_left_24" depart="46.00" departLane="2o_0" departPos="5.10" departSpeed="0.00" departDelay="24.00" arrival="75.00" arrivalLane="1i_0" arrivalPos="91.45" arrivalSpeed="11.15" duration="29.00" routeLength="202.76" waitSteps="0" timeLoss="13.84" rerouteNo="0" devices="tripinfo_car_left_24" vType="car" speedFactor="1.00" vaporized=""/>
    <tripinfo id="bus_right_23" depart="45.00" departLane="1o_0" departPos="7.10" departSpeed="0.00" departDelay="23.00" arrival="77.00" arrivalLane="2i_0" arrivalPos="99.28" arrivalSpeed="9.91" duration="32.00" routeLength="200.57" waitSteps="0" timeLoss="11.59" rerouteNo="0" devices="tripinfo_bus_right_23" vType="bus" speedFactor="1.00" vaporized=""/>
    <tripinfo id="car_right_27" depart="51.00" departLane="1o_0" departPos="5.10" departSpeed="0.00" departDelay="26.00" arrival="79.00" arrivalLane="2i_0" arrivalPos="99.28" arrivalSpeed="11.11" duration="28.00" routeLength="202.57" waitSteps="0" timeLoss="13.05" rerouteNo="0" devices="tripinfo_car_right_27" vType="car" speedFactor="1.00" vaporized=""/>
    <tripinfo id="bike_right_28" depart="54.00" departLane="1o_0" departPos="1.90" departSpeed="0.00" departDelay="29.00" arrival="83.00" arrivalLane="2i_0" arrivalPos="99.28" arrivalSpeed="13.13" duration="29.00" routeLength="205.77" waitSteps="0" timeLoss="18.13" rerouteNo="0" devices="tripinfo_bike_right_28" vType="bike" speedFactor="1.45" vaporized=""/>
    <tripinfo id="bus_left_26" depart="56.00" departLane="2o_0" departPos="7.10" departSpeed="0.00" departDelay="34.00" arrival="89.00" arrivalLane="1i_1" arrivalPos="91.45" arrivalSpeed="9.93" duration="33.00" routeLength="200.76" waitSteps="0" timeLoss="12.91" rerouteNo="0" devices="tripinfo_bus_left_26" vType="bus" speedFactor="1.00" vaporized=""/>
    <tripinfo id="bus_right_29" depart="61.00" departLane="1o_0" departPos="7.10" departSpeed="0.00" departDelay="36.00" arrival="93.00" arrivalLane="2i_0" arrivalPos="99.28" arrivalSpeed="9.91" duration="32.00" routeLength="200.57" waitSteps="0" timeLoss="11.56" rerouteNo="0" devices="tripinfo_bus_right_29" vType="bus" speedFactor="1.00" vaporized=""/>
    <tripinfo id="car_right_30" depart="67.00" departLane="1o_0" departPos="5.10" departSpeed="0.00" departDelay="36.00" arrival="95.00" arrivalLane="2i_0" arrivalPos="99.28" arrivalSpeed="11.53" duration="28.00" routeLength="202.57" waitSteps="0" timeLoss="12.99" rerouteNo="0" devices="tripinfo_car_right_30" vType="car" speedFactor="1.00" vaporized=""/>
    <tripinfo id="bike_left_43" depart="62.00" departLane="2o_0" departPos="1.90" departSpeed="0.00" departDelay="21.00" arrival="95.00" arrivalLane="1i_1" arrivalPos="91.45" arrivalSpeed="8.74" duration="33.00" routeLength="205.96" waitSteps="0" timeLoss="8.84" rerouteNo="0" devices="tripinfo_bike_left_43" vType="bike" speedFactor="0.63" vaporized=""/>
    <tripinfo id="car_left_42" depart="59.00" departLane="2o_0" departPos="5.10" departSpeed="0.00" departDelay="18.00" arrival="97.00" arrivalLane="1i_1" arrivalPos="91.45" arrivalSpeed="12.15" duration="38.00" routeLength="202.76" waitSteps="0" timeLoss="22.61" rerouteNo="0" devices="tripinfo_car_left_42" vType="car" speedFactor="1.00" vaporized=""/>
    <tripinfo id="bike_right_31" depart="70.00" departLane="1o_0" departPos="1.90" departSpeed="0.00" departDelay="39.00" arrival="99.00" arrivalLane="2i_0" arrivalPos="99.28" arrivalSpeed="13.30" duration="29.00" routeLength="205.77" waitSteps="0" timeLoss="15.11" rerouteNo="0" devices="tripinfo_bike_right_31" vType="bike" speedFactor="1.13" vaporized=""/>
    <tripinfo id="car_left_48" depart="75.00" departLane="2o_0" departPos="5.10" departSpeed="0.00" departDelay="26.00" arrival="102.00" arrivalLane="1i_1" arrivalPos="91.45" arrivalSpeed="13.80" duration="27.00" routeLength="202.76" waitSteps="0" timeLoss="11.89" rerouteNo="0" devices="tripinfo_car_left_48" vType="car" speedFactor="1.00" vaporized=""/>
    <tripinfo id="bike_left_25" depart="49.00" departLane="2o_0" departPos="1.90" departSpeed="0.00" departDelay="27.00" arrival="108.00" arrivalLane="1i_0" arrivalPos="91.45" arrivalSpeed="3.77" duration="59.00" routeLength="205.96" waitSteps="1" timeLoss="6.29" rerouteNo="0" devices="tripinfo_bike_left_25" vType="bike" speedFactor="0.28" vaporized=""/>
    <tripinfo id="bus_left_44" depart="68.00" departLane="2o_0" departPos="7.10" departSpeed="0.00" departDelay="27.00" arrival="108.00" arrivalLane="1i_1" arrivalPos="91.45" arrivalSpeed="6.82" duration="40.00" routeLength="200.76" waitSteps="0" timeLoss="19.30" rerouteNo="0" devices="tripinfo_bus_left_44" vType="bus" speedFactor="1.00" vaporized=""/>
    <tripinfo id="bus_right_32" depart="77.00" departLane="1o_0" departPos="7.10" departSpeed="0.00" departDelay="46.00" arrival="110.00" arrivalLane="2i_0" arrivalPos="99.28" arrivalSpeed="9.86" duration="33.00" routeLength="200.57" waitSteps="0" timeLoss="12.74" rerouteNo="0" devices="tripinfo_bus_right_32" vType="bus" speedFactor="1.00" vaporized=""/>
    <tripinfo id="bike_left_49" depart="78.00" departLane="2o_0" departPos="1.90" departSpeed="0.00" departDelay="29.00" arrival="110.00" arrivalLane="1i_0" arrivalPos="91.45" arrivalSpeed="6.84" duration="32.00" routeLength="205.96" waitSteps="0" timeLoss="10.56" rerouteNo="0" devices="tripinfo_bike_left_49" vType="bike" speedFactor="0.71" vaporized=""/>
    <tripinfo id="bike_right_37" depart="86.00" departLane="1o_0" departPos="1.90" departSpeed="0.00" departDelay="52.00" arrival="112.00" arrivalLane="2i_1" arrivalPos="99.28" arrivalSpeed="16.23" duration="26.00" routeLength="205.77" waitSteps="0" timeLoss="15.13" rerouteNo="0" devices="tripinfo_bike_right_37" vType="bike" speedFactor="1.61" vaporized=""/>
    <tripinfo id="car_right_36" depart="83.00" departLane="1o_0" departPos="5.10" departSpeed="0.00" departDelay="49.00" arrival="112.00" arrivalLane="2i_0" arrivalPos="99.28" arrivalSpeed="11.00" duration="29.00" routeLength="202.57" waitSteps="0" timeLoss="14.15" rerouteNo="0" devices="tripinfo_car_right_36" vType="car" speedFactor="1.00" vaporized=""/>
    <tripinfo id="bus_left_50" depart="84.00" departLane="2o_0" departPos="7.10" departSpeed="0.00" departDelay="35.00" arrival="117.00" arrivalLane="1i_0" arrivalPos="91.45" arrivalSpeed="9.81" duration="33.00" routeLength="200.76" waitSteps="0" timeLoss="12.12" rerouteNo="0" devices="tripinfo_bus_left_50" vType="bus" speedFactor="1.00" vaporized=""/>
    <tripinfo id="bike_left_61" depart="93.00" departLane="2o_0" departPos="1.90" departSpeed="0.00" departDelay="26.00" arrival="119.00" arrivalLane="1i_1" arrivalPos="91.45" arrivalSpeed="14.26" duration="26.00" routeLength="205.96" waitSteps="0" timeLoss="11.83" rerouteNo="0" devices="tripinfo_bike_left_61" vType="bike" speedFactor="1.05" vaporized=""/>
    <tripinfo id="car_left_60" depart="90.00" departLane="2o_0" departPos="5.10" departSpeed="0.00" departDelay="23.00" arrival="119.00" arrivalLane="1i_0" arrivalPos="91.45" arrivalSpeed="10.84" duration="29.00" routeLength="202.76" waitSteps="0" timeLoss="13.73" rerouteNo="0" devices="tripinfo_car_left_60" vType="car" speedFactor="1.00" vaporized=""/>
    <tripinfo id="bus_right_38" depart="92.00" departLane="1o_0" departPos="7.10" departSpeed="0.00" departDelay="58.00" arrival="126.00" arrivalLane="2i_0" arrivalPos="99.28" arrivalSpeed="9.93" duration="34.00" routeLength="200.57" waitSteps="0" timeLoss="13.58" rerouteNo="0" devices="tripinfo_bus_right_38" vType="bus" speedFactor="1.00" vaporized=""/>
    <tripinfo id="car_right_39" depart="99.00" departLane="1o_0" departPos="5.10" departSpeed="0.00" departDelay="59.00" arrival="128.00" arrivalLane="2i_0" arrivalPos="99.28" arrivalSpeed="11.35" duration="29.00" routeLength="202.57" waitSteps="0" timeLoss="14.01" rerouteNo="0" devices="tripinfo_car_right_39" vType="car" speedFactor="1.00" vaporized=""/>
    <tripinfo id="bike_right_40" depart="101.00" departLane="1o_0" departPos="1.90" departSpeed="0.00" departDelay="61.00" arrival="129.00" arrivalLane="2i_1" arrivalPos="99.28" arrivalSpeed="13.03" duration="28.00" routeLength="205.77" waitSteps="1" timeLoss="11.93" rerouteNo="0" devices="tripinfo_bike_right_40" vType="bike" speedFactor="0.96" vaporized=""/>
    <tripinfo id="car_down_33" depart="31.00" departLane="54o_0" departPos="5.10" departSpeed="0.00" departDelay="0.00" arrival="141.00" arrivalLane="53i_0" arrivalPos="12.89" arrivalSpeed="12.50" duration="110.00" routeLength="268.69" waitSteps="66" timeLoss="90.63" rerouteNo="0" devices="tripinfo_car_down_33" vType="car" speedFactor="1.00" vaporized=""/>
    <tripinfo id="car_up_9" depart="4.00" departLane="53o_0" departPos="5.10" departSpeed="0.00" departDelay="0.00" arrival="144.00" arrivalLane="54i_0" arrivalPos="14.27" arrivalSpeed="13.80" duration="140.00" routeLength="268.73" waitSteps="96" timeLoss="120.11" rerouteNo="0" devices="tripinfo_car_up_9" vType="car" speedFactor="1.00" vaporized=""/>
    <tripinfo id="bike_down_34" depart="34.00" departLane="54o_0" departPos="1.90" departSpeed="0.00" departDelay="3.00" arrival="145.00" arrivalLane="53i_0" arrivalPos="12.89" arrivalSpeed="12.37" duration="111.00" routeLength="271.89" waitSteps="62" timeLoss="94.64" rerouteNo="0" devices="tripinfo_bike_down_34" vType="bike" speedFactor="1.24" vaporized=""/>
    <tripinfo id="bike_up_10" depart="7.00" departLane="53o_0" departPos="1.90" departSpeed="0.00" departDelay="3.00" arrival="147.00" arrivalLane="54i_0" arrivalPos="14.27" arrivalSpeed="12.67" duration="140.00" routeLength="271.93" waitSteps="92" timeLoss="126.12" rerouteNo="0" devices="tripinfo_bike_up_10" vType="bike" speedFactor="1.41" vaporized=""/>
    <tripinfo id="bus_down_35" depart="41.00" departLane="54o_0" departPos="7.10" departSpeed="0.00" departDelay="10.00" arrival="149.00" arrivalLane="53i_0" arrivalPos="12.89" arrivalSpeed="10.00" duration="108.00" routeLength="266.69" waitSteps="55" timeLoss="81.33" rerouteNo="0" devices="tripinfo_bus_down_35" vType="bus" speedFactor="1.00" vaporized=""/>
    <tripinfo id="car_down_63" depart="72.00" departLane="54o_0" departPos="5.10" departSpeed="0.00" departDelay="0.00" arrival="151.00" arrivalLane="53i_0" arrivalPos="12.89" arrivalSpeed="10.44" duration="79.00" routeLength="268.69" waitSteps="30" timeLoss="59.62" rerouteNo="0" devices="tripinfo_car_down_63" vType="car" speedFactor="1.00" vaporized=""/>
    <tripinfo id="bus_up_11" depart="13.00" departLane="53o_0" departPos="7.10" departSpeed="0.00" departDelay="9.00" arrival="153.00" arrivalLane="54i_0" arrivalPos="14.27" arrivalSpeed="9.95" duration="140.00" routeLength="266.73" waitSteps="86" timeLoss="112.55" rerouteNo="0" devices="tripinfo_bus_up_11" vType="bus" speedFactor="1.00" vaporized=""/>
    <tripinfo id="car_up_18" depart="19.00" departLane="53o_0" departPos="5.10" departSpeed="0.00" departDelay="3.00" arrival="155.00" arrivalLane="54i_0" arrivalPos="14.27" arrivalSpeed="11.31" duration="136.00" routeLength="268.73" waitSteps="85" timeLoss="115.97" rerouteNo="0" devices="tripinfo_car_up_18" vType="car" speedFactor="1.00" vaporized=""/>
    <tripinfo id="bike_down_64" depart="75.00" departLane="54o_0" departPos="1.90" departSpeed="0.00" departDelay="3.00" arrival="155.00" arrivalLane="53i_0" arrivalPos="12.89" arrivalSpeed="11.37" duration="80.00" routeLength="271.89" waitSteps="27" timeLoss="56.91" rerouteNo="0" devices="tripinfo_bike_down_64" vType="bike" speedFactor="0.88" vaporized=""/>
    <tripinfo id="bus_down_65" depart="81.00" departLane="54o_0" departPos="7.10" departSpeed="0.00" departDelay="9.00" arrival="157.00" arrivalLane="53i_0" arrivalPos="12.89" arrivalSpeed="9.78" duration="76.00" routeLength="266.69" waitSteps="20" timeLoss="48.51" rerouteNo="0" devices="tripinfo_bus_down_65" vType="bus" speedFactor="1.00" vaporized=""/>
    <tripinfo id="car_down_72" depart="87.00" departLane="54o_0" departPos="5.10" departSpeed="0.00" departDelay="2.00" arrival="159.00" arrivalLane="53i_0" arrivalPos="12.89" arrivalSpeed="10.69" duration="72.00" routeLength="268.69" waitSteps="20" timeLoss="52.00" rerouteNo="0" devices="tripinfo_car_down_72" vType="car" speedFactor="1.00" vaporized=""/>
    <tripinfo id="bike_down_73" depart="90.00" departLane="54o_0" departPos="1.90" departSpeed="0.00" departDelay="5.00" arrival="163.00" arrivalLane="53i_0" arrivalPos="12.89" arrivalSpeed="7.89" duration="73.00" routeLength="271.89" waitSteps="17" timeLoss="39.44" rerouteNo="0" devices="tripinfo_bike_down_73" vType="bike" speedFactor="0.59" vaporized=""/>
    <tripinfo id="bike_up_19" depart="22.00" departLane="53o_0" departPos="1.90" departSpeed="0.00" departDelay="6.00" arrival="165.00" arrivalLane="54i_0" arrivalPos="14.27" arrivalSpeed="5.95" duration="143.00" routeLength="271.93" waitSteps="82" timeLoss="97.34" rerouteNo="0" devices="tripinfo_bike_up_19" vType="bike" speedFactor="0.43" vaporized=""/>
    <tripinfo id="bus_down_74" depart="97.00" departLane="54o_0" departPos="7.10" departSpeed="0.00" departDelay="12.00" arrival="165.00" arrivalLane="53i_0" arrivalPos="12.89" arrivalSpeed="8.60" duration="68.00" routeLength="266.69" waitSteps="11" timeLoss="41.01" rerouteNo="0" devices="tripinfo_bus_down_74" vType="bus" speedFactor="1.00" vaporized=""/>
    <tripinfo id="bus_up_20" depart="28.00" departLane="53o_0" departPos="7.10" departSpeed="0.00" departDelay="12.00" arrival="167.00" arrivalLane="54i_0" arrivalPos="14.27" arrivalSpeed="6.36" duration="139.00" routeLength="266.73" waitSteps="77" timeLoss="112.31" rerouteNo="0" devices="tripinfo_bus_up_20" vType="bus" speedFactor="1.00" vaporized=""/>
    <tripinfo id="car_down_78" depart="104.00" departLane="54o_0" departPos="5.10" departSpeed="0.00" departDelay="6.00" arrival="167.00" arrivalLane="53i_0" arrivalPos="12.89" arrivalSpeed="9.66" duration="63.00" routeLength="268.69" waitSteps="9" timeLoss="43.42" rerouteNo="0" devices="tripinfo_car_down_78" vType="car" speedFactor="1.00" vaporized=""/>
    <tripinfo id="car_up_81" depart="103.00" departLane="53o_0" departPos="5.10" departSpeed="0.00" departDelay="0.00" arrival="170.00" arrivalLane="54i_0" arrivalPos="14.27" arrivalSpeed="7.68" duration="67.00" routeLength="268.73" waitSteps="8" timeLoss="47.30" rerouteNo="0" devices="tripinfo_car_up_81" vType="car" speedFactor="1.00" vaporized=""/>
    <tripinfo id="bike_down_79" depart="107.00" departLane="54o_0" departPos="1.90" departSpeed="0.00" departDelay="9.00" arrival="170.00" arrivalLane="53i_0" arrivalPos="12.89" arrivalSpeed="10.38" duration="63.00" routeLength="271.89" waitSteps="7" timeLoss="49.30" rerouteNo="0" devices="tripinfo_bike_down_79" vType="bike" speedFactor="1.66" vaporized=""/>
    <tripinfo id="bus_down_80" depart="113.00" departLane="54o_0" departPos="7.10" departSpeed="0.00" departDelay="15.00" arrival="172.00" arrivalLane="53i_0" arrivalPos="12.89" arrivalSpeed="9.73" duration="59.00" routeLength="266.69" waitSteps="1" timeLoss="32.10" rerouteNo="0" devices="tripinfo_bus_down_80" vType="bus" speedFactor="1.00" vaporized=""/>
    <tripinfo id="bike_up_82" depart="106.00" departLane="53o_0" departPos="1.90" departSpeed="0.00" departDelay="3.00" arrival="173.00" arrivalLane="54i_0" arrivalPos="14.27" arrivalSpeed="8.24" duration="67.00" routeLength="271.93" waitSteps="4" timeLoss="36.53" rerouteNo="0" devices="tripinfo_bike_up_82" vType="bike" speedFactor="0.66" vaporized=""/>
    <tripinfo id="car_down_111" depart="129.00" departLane="54o_0" departPos="5.10" departSpeed="0.00" departDelay="0.00" arrival="174.00" arrivalLane="53i_0" arrivalPos="12.89" arrivalSpeed="10.40" duration="45.00" routeLength="268.69" waitSteps="0" timeLoss="25.45" rerouteNo="0" devices="tripinfo_car_down_111" vType="car" speedFactor="1.00" vaporized=""/>
    <tripinfo id="bus_up_83" depart="112.00" departLane="53o_0" departPos="7.10" departSpeed="0.00" departDelay="9.00" arrival="175.00" arrivalLane="54i_0" arrivalPos="14.27" arrivalSpeed="7.98" duration="63.00" routeLength="266.73" waitSteps="0" timeLoss="35.82" rerouteNo="0" devices="tripinfo_bus_up_83" vType="bus" speedFactor="1.00" vaporized=""/>
    <tripinfo id="car_up_84" depart="119.00" departLane="53o_0" departPos="5.10" departSpeed="0.00" departDelay="13.00" arrival="177.00" arrivalLane="54i_0" arrivalPos="14.27" arrivalSpeed="8.55" duration="58.00" routeLength="268.73" waitSteps="0" timeLoss="38.40" rerouteNo="0" devices="tripinfo_car_up_84" vType="car" speedFactor="1.00" vaporized=""/>
    <tripinfo id="bike_up_85" depart="122.00" departLane="53o_0" departPos="1.90" departSpeed="0.00" departDelay="16.00" arrival="180.00" arrivalLane="54i_0" arrivalPos="14.27" arrivalSpeed="8.71" duration="58.00" routeLength="271.93" waitSteps="0" timeLoss="44.23" rerouteNo="0" devices="tripinfo_bike_up_85" vType="bike" speedFactor="1.89" vaporized=""/>
    <tripinfo id="bike_down_112" depart="132.00" departLane="54o_0" departPos="1.90" departSpeed="0.00" departDelay="3.00" arrival="181.00" arrivalLane="53i_0" arrivalPos="12.89" arrivalSpeed="6.85" duration="49.00" routeLength="271.89" waitSteps="0" timeLoss="9.30" rerouteNo="0" devices="tripinfo_bike_down_112" vType="bike" speedFactor="0.50" vaporized=""/>
    <tripinfo id="bus_up_86" depart="128.00" departLane="53o_0" departPos="7.10" departSpeed="0.00" departDelay="22.00" arrival="182.00" arrivalLane="54i_0" arrivalPos="14.27" arrivalSpeed="8.37" duration="54.00" routeLength="266.73" waitSteps="0" timeLoss="27.01" rerouteNo="0" devices="tripinfo_bus_up_86" vType="bus" speedFactor="1.00" vaporized=""/>
    <tripinfo id="bus_down_113" depart="138.00" departLane="54o_0" departPos="7.10" departSpeed="0.00" departDelay="9.00" arrival="183.00" arrivalLane="53i_0" arrivalPos="12.89" arrivalSpeed="7.37" duration="45.00" routeLength="266.69" waitSteps="0" timeLoss="17.74" rerouteNo="0" devices="tripinfo_bus_down_113" vType="bus" speedFactor="1.00" vaporized=""/>
    <tripinfo id="car_up_117" depart="135.00" departLane="53o_0" departPos="5.10" departSpeed="0.00" departDelay="0.00" arrival="184.00" arrivalLane="54i_0" arrivalPos="14.27" arrivalSpeed="9.11" duration="49.00" routeLength="268.73" waitSteps="0" timeLoss="29.46" rerouteNo="0" devices="tripinfo_car_up_117" vType="car" speedFactor="1.00" vaporized=""/>
    <tripinfo id="car_down_126" depart="149.00" departLane="54o_0" departPos="5.10" departSpeed="0.00" departDelay="0.00" arrival="185.00" arrivalLane="53i_0" arrivalPos="12.89" arrivalSpeed="8.24" duration="36.00" routeLength="268.69" waitSteps="0" timeLoss="16.35" rerouteNo="0" devices="tripinfo_car_down_126" vType="car" speedFactor="1.00" vaporized=""/>
    <tripinfo id="bike_up_118" depart="138.00" departLane="53o_0" departPos="1.90" departSpeed="0.00" departDelay="3.00" arrival="187.00" arrivalLane="54i_0" arrivalPos="14.27" arrivalSpeed="9.61" duration="49.00" routeLength="271.93" waitSteps="0" timeLoss="23.88" rerouteNo="0" devices="tripinfo_bike_up_118" vType="bike" speedFactor="0.79" vaporized=""/>
    <tripinfo id="bike_down_127" depart="152.00" departLane="54o_0" departPos="1.90" departSpeed="0.00" departDelay="3.00" arrival="188.00" arrivalLane="53i_0" arrivalPos="12.89" arrivalSpeed="9.64" duration="36.00" routeLength="271.89" waitSteps="0" timeLoss="19.80" rerouteNo="0" devices="tripinfo_bike_down_127" vType="bike" speedFactor="1.22" vaporized=""/>
    <tripinfo id="bus_up_119" depart="145.00" departLane="53o_0" departPos="7.10" departSpeed="0.00" departDelay="10.00" arrival="189.00" arrivalLane="54i_0" arrivalPos="14.27" arrivalSpeed="9.20" duration="44.00" routeLength="266.73" waitSteps="0" timeLoss="17.06" rerouteNo="0" devices="tripinfo_bus_up_119" vType="bus" speedFactor="1.00" vaporized=""/>
    <tripinfo id="bus_down_128" depart="158.00" departLane="54o_0" departPos="7.10" departSpeed="0.00" departDelay="9.00" arrival="200.00" arrivalLane="53i_0" arrivalPos="12.89" arrivalSpeed="9.91" duration="42.00" routeLength="266.69" waitSteps="0" timeLoss="14.48" rerouteNo="0" devices="tripinfo_bus_down_128" vType="bus" speedFactor="1.00" vaporized=""/>
    <tripinfo id="car_left_66" depart="106.00" departLane="2o_0" departPos="5.10" departSpeed="0.00" departDelay="32.00" arrival="229.00" arrivalLane="1i_0" arrivalPos="91.45" arrivalSpeed="11.58" duration="123.00" routeLength="202.76" waitSteps="85" timeLoss="108.12" rerouteNo="0" devices="tripinfo_car_left_66" vType="car" speedFactor="1.00" vaporized=""/>
    <tripinfo id="car_right_45" depart="115.00" departLane="1o_0" departPos="5.10" departSpeed="0.00" departDelay="71.00" arrival="230.00" arrivalLane="2i_0" arrivalPos="99.28" arrivalSpeed="11.88" duration="115.00" routeLength="202.57" waitSteps="77" timeLoss="100.04" rerouteNo="0" devices="tripinfo_car_right_45" vType="car" speedFactor="1.00" vaporized=""/>
    <tripinfo id="bus_right_41" depart="108.00" departLane="1o_0" departPos="7.10" departSpeed="0.00" departDelay="68.00" arrival="235.00" arrivalLane="2i_0" arrivalPos="99.28" arrivalSpeed="9.15" duration="127.00" routeLength="200.57" waitSteps="80" timeLoss="106.87" rerouteNo="0" devices="tripinfo_bus_right_41" vType="bus" speedFactor="1.00" vaporized=""/>
    <tripinfo id="bus_left_62" depart="100.00" departLane="2o_0" departPos="7.10" departSpeed="0.00" departDelay="33.00" arrival="235.00" arrivalLane="1i_0" arrivalPos="91.45" arrivalSpeed="9.45" duration="135.00" routeLength="200.76" waitSteps="88" timeLoss="114.09" rerouteNo="0" devices="tripinfo_bus_left_62" vType="bus" speedFactor="1.00" vaporized=""/>
    <tripinfo id="bike_left_67" depart="109.00" departLane="2o_0" departPos="1.90" departSpeed="0.00" departDelay="35.00" arrival="236.00" arrivalLane="1i_1" arrivalPos="91.45" arrivalSpeed="6.05" duration="127.00" routeLength="205.96" waitSteps="79" timeLoss="93.68" rerouteNo="0" devices="tripinfo_bike_left_67" vType="bike" speedFactor="0.45" vaporized=""/>
    <tripinfo id="car_left_90" depart="121.00" departLane="2o_0" departPos="5.10" departSpeed="0.00" departDelay="4.00" arrival="238.00" arrivalLane="1i_1" arrivalPos="91.45" arrivalSpeed="7.04" duration="117.00" routeLength="202.76" waitSteps="72" timeLoss="102.11" rerouteNo="0" devices="tripinfo_car_left_90" vType="car" speedFactor="1.00" vaporized=""/>
    <tripinfo id="bus_left_68" depart="115.00" departLane="2o_0" departPos="7.10" departSpeed="0.00" departDelay="41.00" arrival="238.00" arrivalLane="1i_0" arrivalPos="91.45" arrivalSpeed="8.98" duration="123.00" routeLength="200.76" waitSteps="74" timeLoss="102.30" rerouteNo="0" devices="tripinfo_bus_left_68" vType="bus" speedFactor="1.00" vaporized=""/>
    <tripinfo id="bus_right_47" depart="124.00" departLane="1o_0" departPos="7.10" departSpeed="0.00" departDelay="80.00" arrival="239.00" arrivalLane="2i_0" arrivalPos="99.28" arrivalSpeed="9.76" duration="115.00" routeLength="200.57" waitSteps="66" timeLoss="94.03" rerouteNo="0" devices="tripinfo_bus_right_47" vType="bus" speedFactor="1.00" vaporized=""/>