<?xml version="1.0" encoding="UTF-8"?>

<!-- generated on Monday 12 March 2018 11:52:27 AM IST by SUMO gui Version 0.32.0
<?xml version="1.0" encoding="UTF-8"?>

<configuration xmlns:xsi="http://www.w3.org/2001/XMLSchema-instance" xsi:noNamespaceSchemaLocation="http://sumo.dlr.de/xsd/sumoConfiguration.xsd">

    <input>
        <net-file value="data/ijipura.net.xml"/>
        <route-files value="data/cross.rou.xml"/>
        <additional-files value="data/cross.det.xml,data/ijipura.poly.xml"/>
    </input>

    <output>
        <tripinfo-output value="tripinfo.xml"/>
    </output>

    <time>
        <begin value="0"/>
    </time>

    <report>
        <verbose value="true"/>
        <no-step-log value="true"/>
    </report>

    <traci_server>
        <remote-port value="46456"/>
    </traci_server>

</configuration>
-->

<tripinfos xmlns:xsi="http://www.w3.org/2001/XMLSchema-instance" xsi:noNamespaceSchemaLocation="http://sumo.dlr.de/xsd/tripinfo_file.xsd">
    <tripinfo id="car_left_0" depart="0.00" departLane="2o_0" departPos="5.10" departSpeed="0.00" departDelay="0.00" arrival="26.00" arrivalLane="1i_0" arrivalPos="91.45" arrivalSpeed="13.84" duration="26.00" routeLength="202.76" waitSteps="0" timeLoss="10.71" rerouteNo="0" devices="tripinfo_car_left_0" vType="car" speedFactor="1.00" vaporized=""/>
    <tripinfo id="car_right_6" depart="3.00" departLane="1o_0" departPos="5.10" departSpeed="0.00" departDelay="0.00" arrival="29.00" arrivalLane="2i_0" arrivalPos="99.28" arrivalSpeed="13.57" duration="26.00" routeLength="202.57" waitSteps="0" timeLoss="11.10" rerouteNo="0" devices="tripinfo_car_right_6" vType="car" speedFactor="1.00" vaporized=""/>
    <tripinfo id="bike_left_1" depart="3.00" departLane="2o_0" departPos="1.90" departSpeed="0.00" departDelay="3.00" arrival="30.00" arrivalLane="1i_0" arrivalPos="91.45" arrivalSpeed="14.72" duration="27.00" routeLength="205.96" waitSteps="0" timeLoss="14.92" rerouteNo="0" devices="tripinfo_bike_left_1" vType="bike" speedFactor="1.30" vaporized=""/>
    <tripinfo id="bike_right_7" depart="6.00" departLane="1o_0" departPos="1.90" departSpeed="0.00" departDelay="3.00" arrival="33.00" arrivalLane="2i_0" arrivalPos="99.28" arrivalSpeed="14.30" duration="27.00" routeLength="205.77" waitSteps="0" timeLoss="12.35" rerouteNo="0" devices="tripinfo_bike_right_7" vType="bike" speedFactor="1.05" vaporized=""/>
    <tripinfo id="bus_left_2" depart="9.00" departLane="2o_0" departPos="7.10" departSpeed="0.00" departDelay="9.00" arrival="42.00" arrivalLane="1i_0" arrivalPos="91.45" arrivalSpeed="9.78" duration="33.00" routeLength="200.76" waitSteps="0" timeLoss="12.39" rerouteNo="0" devices="tripinfo_bus_left_2" vType="bus" speedFactor="1.00" vaporized=""/>
    <tripinfo id="car_left_3" depart="15.00" departLane="2o_0" departPos="5.10" departSpeed="0.00" departDelay="13.00" arrival="44.00" arrivalLane="1i_0" arrivalPos="91.45" arrivalSpeed="11.42" duration="29.00" routeLength="202.76" waitSteps="0" timeLoss="13.85" rerouteNo="0" devices="tripinfo_car_left_3" vType="car" speedFactor="1.00" vaporized=""/>
    <tripinfo id="bus_right_8" depart="12.00" departLane="1o_0" departPos="7.10" departSpeed="0.00" departDelay="9.00" arrival="45.00" arrivalLane="2i_0" arrivalPos="99.28" arrivalSpeed="9.77" duration="33.00" routeLength="200.57" waitSteps="0" timeLoss="12.78" rerouteNo="0" devices="tripinfo_bus_right_8" vType="bus" speedFactor="1.00" vaporized=""/>
    <tripinfo id="car_right_15" depart="18.00" departLane="1o_0" departPos="5.10" departSpeed="0.00" departDelay="7.00" arrival="47.00" arrivalLane="2i_0" arrivalPos="99.28" arrivalSpeed="10.78" duration="29.00" routeLength="202.57" waitSteps="0" timeLoss="14.20" rerouteNo="0" devices="tripinfo_car_right_15" vType="car" speedFactor="1.00" vaporized=""/>
    <tripinfo id="bike_right_16" depart="21.00" departLane="1o_0" departPos="1.90" departSpeed="0.00" departDelay="10.00" arrival="48.00" arrivalLane="2i_1" arrivalPos="99.28" arrivalSpeed="16.22" duration="27.00" routeLength="205.77" waitSteps="0" timeLoss="14.21" rerouteNo="0" devices="tripinfo_bike_right_16" vType="bike" speedFactor="1.23" vaporized=""/>
    <tripinfo id="bike_left_4" depart="18.00" departLane="2o_0" departPos="1.90" departSpeed="0.00" departDelay="16.00" arrival="48.00" arrivalLane="1i_0" arrivalPos="91.45" arrivalSpeed="9.33" duration="30.00" routeLength="205.96" waitSteps="0" timeLoss="8.45" rerouteNo="0" devices="tripinfo_bike_left_4" vType="bike" speedFactor="0.69" vaporized=""/>
    <tripinfo id="bus_left_5" depart="25.00" departLane="2o_0" departPos="7.10" departSpeed="0.00" departDelay="23.00" arrival="58.00" arrivalLane="1i_0" arrivalPos="91.45" arrivalSpeed="9.79" duration="33.00" routeLength="200.76" waitSteps="0" timeLoss="12.43" rerouteNo="0" devices="tripinfo_bus_left_5" vType="bus" speedFactor="1.00" vaporized=""/>
    <tripinfo id="car_left_12" depart="31.00" departLane="2o_0" departPos="5.10" departSpeed="0.00" departDelay="21.00" arrival="60.00" arrivalLane="1i_0" arrivalPos="91.45" arrivalSpeed="11.17" duration="29.00" routeLength="202.76" waitSteps="0" timeLoss="13.91" rerouteNo="0" devices="tripinfo_car_left_12" vType="car" speedFactor="1.00" vaporized=""/>
    <tripinfo id="bus_right_17" depart="28.00" departLane="1o_0" departPos="7.10" departSpeed="0.00" departDelay="17.00" arrival="63.00" arrivalLane="2i_0" arrivalPos="99.28" arrivalSpeed="9.78" duration="35.00" routeLength="200.57" waitSteps="0" timeLoss="14.65" rerouteNo="0" devices="tripinfo_bus_right_17" vType="bus" speedFactor="1.00" vaporized=""/>
    <tripinfo id="car_down_33" depart="31.00" departLane="54o_0" departPos="5.10" departSpeed="0.00" departDelay="0.00" arrival="65.00" arrivalLane="53i_0" arrivalPos="12.89" arrivalSpeed="13.59" duration="34.00" routeLength="268.69" waitSteps="0" timeLoss="14.55" rerouteNo="0" devices="tripinfo_car_down_33" vType="car" speedFactor="1.00" vaporized=""/>
    <tripinfo id="bike_down_34" depart="34.00" departLane="54o_0" departPos="1.90" departSpeed="0.00" departDelay="3.00" arrival="69.00" arrivalLane="53i_0" arrivalPos="12.89" arrivalSpeed="13.89" duration="35.00" routeLength="271.89" waitSteps="0" timeLoss="18.83" rerouteNo="0" devices="tripinfo_bike_down_34" vType="bike" speedFactor="1.24" vaporized=""/>
    <tripinfo id="car_up_9" depart="4.00" departLane="53o_0" departPos="5.10" departSpeed="0.00" departDelay="0.00" arrival="75.00" arrivalLane="54i_0" arrivalPos="14.27" arrivalSpeed="13.64" duration="71.00" routeLength="268.73" waitSteps="28" timeLoss="50.71" rerouteNo="0" devices="tripinfo_car_up_9" vType="car" speedFactor="1.00" vaporized=""/>
    <tripinfo id="bike_up_10" depart="7.00" departLane="53o_0" departPos="1.90" departSpeed="0.00" departDelay="3.00" arrival="78.00" arrivalLane="54i_0" arrivalPos="14.27" arrivalSpeed="13.37" duration="71.00" routeLength="271.93" waitSteps="24" timeLoss="56.85" rerouteNo="0" devices="tripinfo_bike_up_10" vType="bike" speedFactor="1.41" vaporized=""/>
    <tripinfo id="bus_down_35" depart="41.00" departLane="54o_0" departPos="7.10" departSpeed="0.00" departDelay="10.00" arrival="81.00" arrivalLane="53i_0" arrivalPos="12.89" arrivalSpeed="9.99" duration="40.00" routeLength="266.69" waitSteps="0" timeLoss="13.17" rerouteNo="0" devices="tripinfo_bus_down_35" vType="bus" speedFactor="1.00" vaporized=""/>
    <tripinfo id="bus_up_11" depart="13.00" departLane="53o_0" departPos="7.10" departSpeed="0.00" departDelay="9.00" arrival="85.00" arrivalLane="54i_0" arrivalPos="14.27" arrivalSpeed="9.90" duration="72.00" routeLength="266.73" waitSteps="18" timeLoss="45.14" rerouteNo="0" devices="tripinfo_bus_up_11" vType="bus" speedFactor="1.00" vaporized=""/>
    <tripinfo id="car_up_18" depart="19.00" departLane="53o_0" departPos="5.10" departSpeed="0.00" departDelay="3.00" arrival="87.00" arrivalLane="54i_0" arrivalPos="14.27" arrivalSpeed="11.47" duration="68.00" routeLength="268.73" waitSteps="17" timeLoss="48.34" rerouteNo="0" devices="tripinfo_car_up_18" vType="car" speedFactor="1.00" vaporized=""/>
    <tripinfo id="bike_up_19" depart="22.00" departLane="53o_0" departPos="1.90" departSpeed="0.00" departDelay="6.00" arrival="98.00" arrivalLane="54i_0" arrivalPos="14.27" arrivalSpeed="5.58" duration="76.00" routeLength="271.93" waitSteps="13" timeLoss="29.87" rerouteNo="0" devices="tripinfo_bike_up_19" vType="bike" speedFactor="0.43" vaporized=""/>
    <tripinfo id="bus_up_20" depart="28.00" departLane="53o_0" departPos="7.10" departSpeed="0.00" departDelay="12.00" arrival="100.00" arrivalLane="54i_0" arrivalPos="14.27" arrivalSpeed="6.59" duration="72.00" routeLength="266.73" waitSteps="8" timeLoss="44.95" rerouteNo="0" devices="tripinfo_bus_up_20" vType="bus" speedFactor="1.00" vaporized=""/>
    <tripinfo id="bike_left_13" depart="34.00" departLane="2o_0" departPos="1.90" departSpeed="0.00" departDelay="24.00" arrival="116.00" arrivalLane="1i_0" arrivalPos="91.45" arrivalSpeed="11.70" duration="82.00" routeLength="205.96" waitSteps="45" timeLoss="68.48" rerouteNo="0" devices="tripinfo_bike_left_13" vType="bike" speedFactor="1.15" vaporized=""/>
    <tripinfo id="car_right_21" depart="35.00" departLane="1o_0" departPos="5.10" departSpeed="0.00" departDelay="13.00" arrival="116.00" arrivalLane="2i_0" arrivalPos="99.28" arrivalSpeed="12.48" duration="81.00" routeLength="202.57" waitSteps="45" timeLoss="65.92" rerouteNo="0" devices="tripinfo_car_right_21" vType="car" speedFactor="1.00" vaporized=""/>
    <tripinfo id="car_down_63" depart="72.00" departLane="54o_0" departPos="5.10" departSpeed="0.00" departDelay="0.00" arrival="125.00" arrivalLane="53i_0" arrivalPos="12.89" arrivalSpeed="12.72" duration="53.00" routeLength="268.69" waitSteps="7" timeLoss="33.20" rerouteNo="0" devices="tripinfo_car_down_63" vType="car" speedFactor="1.00" vaporized=""/>
    <tripinfo id="bike_down_64" depart="75.00" departLane="54o_0" departPos="1.90" departSpeed="0.00" departDelay="3.00" arrival="128.00" arrivalLane="53i_0" arrivalPos="12.89" arrivalSpeed="11.85" duration="53.00" routeLength="271.89" waitSteps="1" timeLoss="30.56" rerouteNo="0" devices="tripinfo_bike_down_64" vType="bike" speedFactor="0.88" vaporized=""/>
    <tripinfo id="car_up_81" depart="103.00" departLane="53o_0" departPos="5.10" departSpeed="0.00" departDelay="0.00" arrival="133.00" arrivalLane="54i_0" arrivalPos="14.27" arrivalSpeed="13.83" duration="30.00" routeLength="268.73" waitSteps="0" timeLoss="10.55" rerouteNo="0" devices="tripinfo_car_up_81" vType="car" speedFactor="1.00" vaporized=""/>
    <tripinfo id="bus_down_65" depart="81.00" departLane="54o_0" departPos="7.10" departSpeed="0.00" departDelay="9.00" arrival="134.00" arrivalLane="53i_0" arrivalPos="12.89" arrivalSpeed="9.99" duration="53.00" routeLength="266.69" waitSteps="0" timeLoss="25.82" rerouteNo="0" devices="tripinfo_bus_down_65" vType="bus" speedFactor="1.00" vaporized=""/>
    <tripinfo id="car_down_72" depart="87.00" departLane="54o_0" departPos="5.10" departSpeed="0.00" departDelay="2.00" arrival="136.00" arrivalLane="53i_0" arrivalPos="12.89" arrivalSpeed="11.06" duration="49.00" routeLength="268.69" waitSteps="0" timeLoss="29.19" rerouteNo="0" devices="tripinfo_car_down_72" vType="car" speedFactor="1.00" vaporized=""/>
    <tripinfo id="bike_down_73" depart="90.00" departLane="54o_0" departPos="1.90" departSpeed="0.00" departDelay="5.00" arrival="140.00" arrivalLane="53i_0" arrivalPos="12.89" arrivalSpeed="8.00" duration="50.00" routeLength="271.89" waitSteps="0" timeLoss="16.61" rerouteNo="0" devices="tripinfo_bike_down_73" vType="bike" speedFactor="0.59" vaporized=""/>
    <tripinfo id="bus_down_74" depart="96.00" departLane="54o_0" departPos="7.10" departSpeed="0.00" departDelay="11.00" arrival="142.00" arrivalLane="53i_0" arrivalPos="12.89" arrivalSpeed="8.61" duration="46.00" routeLength="266.69" waitSteps="0" timeLoss="19.15" rerouteNo="0" devices="tripinfo_bus_down_74" vType="bus" speedFactor="1.00" vaporized=""/>
    <tripinfo id="bike_up_82" depart="106.00" departLane="53o_0" departPos="1.90" departSpeed="0.00" departDelay="3.00" arrival="144.00" arrivalLane="54i_0" arrivalPos="14.27" arrivalSpeed="9.08" duration="38.00" routeLength="271.93" waitSteps="0" timeLoss="7.77" rerouteNo="0" devices="tripinfo_bike_up_82" vType="bike" speedFactor="0.66" vaporized=""/>
    <tripinfo id="car_down_78" depart="102.00" departLane="54o_0" departPos="5.10" departSpeed="0.00" departDelay="4.00" arrival="144.00" arrivalLane="53i_0" arrivalPos="12.89" arrivalSpeed="9.07" duration="42.00" routeLength="268.69" waitSteps="1" timeLoss="22.59" rerouteNo="0" devices="tripinfo_car_down_78" vType="car" speedFactor="1.00" vaporized=""/>
    <tripinfo id="bike_down_79" depart="106.00" departLane="54o_0" departPos="1.90" departSpeed="0.00" departDelay="8.00" arrival="148.00" arrivalLane="53i_0" arrivalPos="12.89" arrivalSpeed="10.61" duration="42.00" routeLength="271.89" waitSteps="0" timeLoss="27.89" rerouteNo="0" devices="tripinfo_bike_down_79" vType="bike" speedFactor="1.66" vaporized=""/>
    <tripinfo id="bike_right_22" depart="38.00" departLane="1o_0" departPos="1.90" departSpeed="0.00" departDelay="16.00" arrival="164.00" arrivalLane="2i_0" arrivalPos="99.28" arrivalSpeed="9.43" duration="126.00" routeLength="205.77" waitSteps="84" timeLoss="103.63" rerouteNo="0" devices="tripinfo_bike_right_22" vType="bike" speedFactor="0.69" vaporized=""/>
    <tripinfo id="bus_down_80" depart="112.00" departLane="54o_0" departPos="7.10" departSpeed="0.00" departDelay="14.00" arrival="171.00" arrivalLane="53i_0" arrivalPos="12.89" arrivalSpeed="9.69" duration="59.00" routeLength="266.69" waitSteps="4" timeLoss="32.20" rerouteNo="0" devices="tripinfo_bus_down_80" vType="bus" speedFactor="1.00" vaporized=""/>
    <tripinfo id="car_down_111" depart="129.00" departLane="54o_0" departPos="5.10" departSpeed="0.00" departDelay="0.00" arrival="173.00" arrivalLane="53i_0" arrivalPos="12.89" arrivalSpeed="10.60" duration="44.00" routeLength="268.69" waitSteps="0" timeLoss="24.48" rerouteNo="0" devices="tripinfo_car_down_111" vType="car" speedFactor="1.00" vaporized=""/>
    <tripinfo id="bike_down_112" depart="132.00" departLane="54o_0" departPos="1.90" departSpeed="0.00" departDelay="3.00" arrival="179.00" arrivalLane="53i_0" arrivalPos="12.89" arrivalSpeed="6.98" duration="47.00" routeLength="271.89" waitSteps="0" timeLoss="7.63" rerouteNo="0" devices="tripinfo_bike_down_112" vType="bike" speedFactor="0.50" vaporized=""/>
    <tripinfo id="bus_up_83" depart="112.00" departLane="53o_0" departPos="7.10" departSpeed="0.00" departDelay="9.00" arrival="179.00" arrivalLane="54i_0" arrivalPos="14.27" arrivalSpeed="9.76" duration="67.00" routeLength="266.73" waitSteps="8" timeLoss="39.65" rerouteNo="0" devices="tripinfo_bus_up_83" vType="bus" speedFactor="1.00" vaporized=""/>
    <tripinfo id="bus_down_113" depart="138.00" departLane="54o_0" departPos="7.10" departSpeed="0.00" departDelay="9.00" arrival="181.00" arrivalLane="53i_0" arrivalPos="12.89" arrivalSpeed="7.52" duration="43.00" routeLength="266.69" waitSteps="0" timeLoss="15.97" rerouteNo="0" devices="tripinfo_bus_down_113" vType="bus" speedFactor="1.00" vaporized=""/>
    <tripinfo id="car_up_84" depart="119.00" departLane="53o_0" departPos="5.10" departSpeed="0.00" departDelay="13.00" arrival="181.00" arrivalLane="54i_0" arrivalPos="14.27" arrivalSpeed="10.82" duration="62.00" routeLength="268.73" waitSteps="6" timeLoss="42.09" rerouteNo="0" devices="tripinfo_car_up_84" vType="car" speedFactor="1.00" vaporized=""/>
    <tripinfo id="car_down_126" depart="149.00" departLane="54o_0" departPos="5.10" departSpeed="0.00" departDelay="0.00" arrival="183.00" arrivalLane="53i_0" arrivalPos="12.89" arrivalSpeed="8.24" duration="34.00" routeLength="268.69" waitSteps="0" timeLoss="14.53" rerouteNo="0" devices="tripinfo_car_down_126" vType="car" speedFactor="1.00" vaporized=""/>
    <tripinfo id="bike_up_85" depart="122.00" departLane="53o_0" departPos="1.90" departSpeed="0.00" departDelay="16.00" arrival="184.00" arrivalLane="54i_0" arrivalPos="14.27" arrivalSpeed="11.03" duration="62.00" routeLength="271.93" waitSteps="2" timeLoss="48.22" rerouteNo="0" devices="tripinfo_bike_up_85" vType="bike" speedFactor="1.89" vaporized=""/>
    <tripinfo id="bus_up_86" depart="128.00" departLane="53o_0" departPos="7.10" departSpeed="0.00" departDelay="22.00" arrival="186.00" arrivalLane="54i_0" arrivalPos="14.27" arrivalSpeed="10.00" duration="58.00" routeLength="266.73" waitSteps="0" timeLoss="30.82" rerouteNo="0" devices="tripinfo_bus_up_86" vType="bus" speedFactor="1.00" vaporized=""/>
    <tripinfo id="bike_down_127" depart="152.00" departLane="54o_0" departPos="1.90" departSpeed="0.00" departDelay="3.00" arrival="187.00" arrivalLane="53i_0" arrivalPos="12.89" arrivalSpeed="10.93" duration="35.00" routeLength="271.89" waitSteps="0" timeLoss="18.41" rerouteNo="0" devices="tripinfo_bike_down_127" vType="bike" speedFactor="1.22" vaporized=""/>
    <tripinfo id="car_up_117" depart="135.00" departLane="53o_0" departPos="5.10" departSpeed="0.00" departDelay="0.00" arrival="188.00" arrivalLane="54i_0" arrivalPos="14.27" arrivalSpeed="11.12" duration="53.00" routeLength="268.73" waitSteps="1" timeLoss="33.17" rerouteNo="0" devices="tripinfo_car_up_117" vType="car" speedFactor="1.00" vaporized=""/>
    <tripinfo id="bike_up_118" depart="138.00" departLane="53o_0" departPos="1.90" departSpeed="0.00" departDelay="3.00" arrival="191.00" arrivalLane="54i_0" arrivalPos="14.27" arrivalSpeed="10.73" duration="53.00" routeLength="271.93" waitSteps="0" timeLoss="27.93" rerouteNo="0" devices="tripinfo_bike_up_118" vType="bike" speedFactor="0.79" vaporized=""/>
    <tripinfo id="bus_up_119" depart="144.00" departLane="53o_0" departPos="7.10" departSpeed="0.00" departDelay="9.00" arrival="193.00" arrivalLane="54i_0" arrivalPos="14.27" arrivalSpeed="9.94" duration="49.00" routeLength="266.73" waitSteps="0" timeLoss="22.02" rerouteNo="0" devices="tripinfo_bus_up_119" vType="bus" speedFactor="1.00" vaporized=""/>
    <tripinfo id="car_left_24" depart="46.00" departLane="2o_0" departPos="5.10" departSpeed="0.00" departDelay="24.00" arrival="208.00" arrivalLane="1i_1" arrivalPos="91.45" arrivalSpeed="11.76" duration="162.00" routeLength="202.76" waitSteps="118" timeLoss="146.82" rerouteNo="0" devices="tripinfo_car_left_24" vType="car" speedFactor="1.00" vaporized=""/>
    <tripinfo id="car_right_27" depart="51.00" departLane="1o_0" departPos="5.10" departSpeed="0.00" departDelay="26.00" arrival="210.00" arrivalLane="2i_0" arrivalPos="99.28" arrivalSpeed="11.77" duration="159.00" routeLength="202.57" waitSteps="115" timeLoss="143.72" rerouteNo="0" devices="tripinfo_car_right_27" vType="car" speedFactor="1.00" vaporized=""/>
    <tripinfo id="bus_left_14" depart="40.00" departLane="2o_0" departPos="7.10" departSpeed="0.00" departDelay="30.00" arrival="213.00" arrivalLane="1i_0" arrivalPos="91.45" arrivalSpeed="8.95" duration="173.00" routeLength="200.76" waitSteps="124" timeLoss="152.65" rerouteNo="0" devices="tripinfo_bus_left_14" vType="bus" speedFactor="1.00" vaporized=""/>
    <tripinfo id="bus_down_128" depart="158.00" departLane="54o_0" departPos="7.10" departSpeed="0.00" departDelay="9.00" arrival="227.00" arrivalLane="53i_0" arrivalPos="12.89" arrivalSpeed="9.80" duration="69.00" routeLength="266.69" waitSteps="10" timeLoss="41.70" rerouteNo="0" devices="tripinfo_bus_down_128" vType="bus" speedFactor="1.00" vaporized=""/>
    <tripinfo id="car_down_156" depart="206.00" departLane="54o_0" departPos="5.10" departSpeed="0.00" departDelay="0.00" arrival="256.00" arrivalLane="53i_0" arrivalPos="12.89" arrivalSpeed="13.00" duration="50.00" routeLength="268.69" waitSteps="7" timeLoss="30.38" rerouteNo="0" devices="tripinfo_car_down_156" vType="car" speedFactor="1.00" vaporized=""/>
    <tripinfo id="car_up_159" depart="212.00" departLane="53o_0" departPos="5.10" departSpeed="0.00" departDelay="0.00" arrival="259.00" arrivalLane="54i_0" arrivalPos="14.27" arrivalSpeed="13.78" duration="47.00" routeLength="268.73" waitSteps="3" timeLoss="27.09" rerouteNo="0" devices="tripinfo_car_up_159" vType="car" speedFactor="1.00" vaporized=""/>
    <tripinfo id="bike_down_157" depart="209.00" departLane="54o_0" departPos="1.90" departSpeed="0.00" departDelay="3.00" arrival="260.00" arrivalLane="53i_0" arrivalPos="12.89" arrivalSpeed="13.31" duration="51.00" routeLength="271.89" waitSteps="3" timeLoss="30.92" rerouteNo="0" devices="tripinfo_bike_down_157" vType="bike" speedFactor="1.02" vaporized=""/>
    <tripinfo id="bike_up_160" depart="215.00" departLane="53o_0" departPos="1.90" departSpeed="0.00" departDelay="3.00" arrival="262.00" arrivalLane="54i_0" arrivalPos="14.27" arrivalSpeed="13.04" duration="47.00" routeLength="271.93" waitSteps="0" timeLoss="27.01" rerouteNo="0" devices="tripinfo_bike_up_160" vType="bike" speedFactor="0.98" vaporized=""/>
    <tripinfo id="bus_down_158" depart="216.00" departLane="54o_0" departPos="7.10" departSpeed="0.00" departDelay="10.00" arrival="263.00" arrivalLane="53i_0" arrivalPos="12.89" arrivalSpeed="9.75" duration="47.00" routeLength="266.69" waitSteps="0" timeLoss="20.11" rerouteNo="0" devices="tripinfo_bus_down_158" vType="bus" speedFactor="1.00" vaporized=""/>
    <tripinfo id="car_down_171" depart="223.00" departLane="54o_0" departPos="5.10" departSpeed="0.00" departDelay="3.00" arrival="265.00" arrivalLane="53i_0" arrivalPos="12.89" arrivalSpeed="10.96" duration="42.00" routeLength="268.69" waitSteps="0" timeLoss="22.39" rerouteNo="0" devices="tripinfo_car_down_171" vType="car" speedFactor="1.00" vaporized=""/>
    <tripinfo id="bus_up_161" depart="221.00" departLane="53o_0" departPos="7.10" departSpeed="0.00" departDelay="9.00" arrival="266.00" arrivalLane="54i_0" arrivalPos="14.27" arrivalSpeed="10.00" duration="45.00" routeLength="266.73" waitSteps="0" timeLoss="18.25" rerouteNo="0" devices="tripinfo_bus_up_161" vType="bus" speedFactor="1.00" vaporized=""/>
    <tripinfo id="bike_down_172" depart="226.00" departLane="54o_0" departPos="1.90" departSpeed="0.00" departDelay="6.00" arrival="268.00" arrivalLane="53i_0" arrivalPos="12.89" arrivalSpeed="11.31" duration="42.00" routeLength="271.89" waitSteps="0" timeLoss="18.91" rerouteNo="0" devices="tripinfo_bike_down_172" vType="bike" speedFactor="0.85" vaporized=""/>
    <tripinfo id="bus_down_173" depart="232.00" departLane="54o_0" departPos="7.10" departSpeed="0.00" departDelay="12.00" arrival="272.00" arrivalLane="53i_0" arrivalPos="12.89" arrivalSpeed="9.79" duration="40.00" routeLength="266.69" waitSteps="0" timeLoss="13.26" rerouteNo="0" devices="tripinfo_bus_down_173" vType="bus" speedFactor="1.00" vaporized=""/>
    <tripinfo id="car_down_183" depart="241.00" departLane="54o_0" departPos="5.10" departSpeed="0.00" departDelay="0.00" arrival="274.00" arrivalLane="53i_0" arrivalPos="12.89" arrivalSpeed="11.10" duration="33.00" routeLength="268.69" waitSteps="0" timeLoss="13.49" rerouteNo="0" devices="tripinfo_car_down_183" vType="car" speedFactor="1.00" vaporized=""/>
    <tripinfo id="bike_down_184" depart="244.00" departLane="54o_0" departPos="1.90" departSpeed="0.00" departDelay="3.00" arrival="278.00" arrivalLane="53i_0" arrivalPos="12.89" arrivalSpeed="12.45" duration="34.00" routeLength="271.89" waitSteps="0" timeLoss="12.51" rerouteNo="0" devices="tripinfo_bike_down_184" vType="bike" speedFactor="0.93" vaporized=""/>
    <tripinfo id="car_up_189" depart="248.00" departLane="53o_0" departPos="5.10" departSpeed="0.00" departDelay="0.00" arrival="279.00" arrivalLane="54i_0" arrivalPos="14.27" arrivalSpeed="13.81" duration="31.00" routeLength="268.73" waitSteps="0" timeLoss="10.69" rerouteNo="0" devices="tripinfo_car_up_189" vType="car" speedFactor="1.00" vaporized=""/>
    <tripinfo id="bike_right_28" depart="54.00" departLane="1o_0" departPos="1.90" departSpeed="0.00" departDelay="29.00" arrival="300.00" arrivalLane="2i_1" arrivalPos="99.28" arrivalSpeed="11.93" duration="246.00" routeLength="205.77" waitSteps="193" timeLoss="235.34" rerouteNo="0" devices="tripinfo_bike_right_28" vType="bike" speedFactor="1.45" vaporized=""/>
    <tripinfo id="bus_right_23" depart="45.00" departLane="1o_0" departPos="7.10" departSpeed="0.00" departDelay="23.00" arrival="305.00" arrivalLane="2i_0" arrivalPos="99.28" arrivalSpeed="9.01" duration="260.00" routeLength="200.57" waitSteps="206" timeLoss="239.45" rerouteNo="0" devices="tripinfo_bus_right_23" vType="bus" speedFactor="1.00" vaporized=""/>
    <tripinfo id="bike_left_25" depart="49.00" departLane="2o_0" departPos="1.90" departSpeed="0.00" departDelay="27.00" arrival="313.00" arrivalLane="1i_0" arrivalPos="91.45" arrivalSpeed="3.71" duration="264.00" routeLength="205.96" waitSteps="193" timeLoss="211.85" rerouteNo="0" devices="tripinfo_bike_left_25" vType="bike" speedFactor="0.28" vaporized=""/>
    <tripinfo id="bus_down_185" depart="250.00" departLane="54o_0" departPos="7.10" departSpeed="0.00" departDelay="9.00" arrival="315.00" arrivalLane="53i_0" arrivalPos="12.89" arrivalSpeed="9.84" duration="65.00" routeLength="266.69" waitSteps="6" timeLoss="37.40" rerouteNo="0" devices="tripinfo_bus_down_185" vType="bus" speedFactor="1.00" vaporized=""/>
    <tripinfo id="car_down_198" depart="256.00" departLane="54o_0" departPos="5.10" departSpeed="0.00" departDelay="0.00" arrival="316.00" arrivalLane="53i_0" arrivalPos="12.89" arrivalSpeed="10.42" duration="60.00" routeLength="268.69" waitSteps="2" timeLoss="40.64" rerouteNo="0" devices="tripinfo_car_down_198" vType="car" speedFactor="1.00" vaporized=""/>
    <tripinfo id="bike_down_199" depart="259.00" departLane="54o_0" departPos="1.90" departSpeed="0.00" departDelay="3.00" arrival="320.00" arrivalLane="53i_0" arrivalPos="12.89" arrivalSpeed="11.00" duration="61.00" routeLength="271.89" waitSteps="0" timeLoss="44.16" rerouteNo="0" devices="tripinfo_bike_down_199" vType="bike" speedFactor="1.20" vaporized=""/>
    <tripinfo id="bus_down_200" depart="266.00" departLane="54o_0" departPos="7.10" departSpeed="0.00" departDelay="10.00" arrival="322.00" arrivalLane="53i_0" arrivalPos="12.89" arrivalSpeed="9.80" duration="56.00" routeLength="266.69" waitSteps="0" timeLoss="28.61" rerouteNo="0" devices="tripinfo_bus_down_200" vType="bus" speedFactor="1.00" vaporized=""/>
    <tripinfo id="bike_up_190" depart="251.00" departLane="53o_0" departPos="1.90" departSpeed="0.00" departDelay="3.00" arrival="323.00" arrivalLane="54i_0" arrivalPos="14.27" arrivalSpeed="5.47" duration="72.00" routeLength="271.93" waitSteps="9" timeLoss="23.85" rerouteNo="0" devices="tripinfo_bike_up_190" vType="bike" speedFactor="0.41" vaporized=""/>
    <tripinfo id="car_down_204" depart="272.00" departLane="54o_0" departPos="5.10" departSpeed="0.00" departDelay="14.00" arrival="324.00" arrivalLane="53i_0" arrivalPos="12.89" arrivalSpeed="11.02" duration="52.00" routeLength="268.69" waitSteps="1" timeLoss="32.00" rerouteNo="0" devices="tripinfo_car_down_204" vType="car" speedFactor="1.00" vaporized=""/>
    <tripinfo id="bus_up_191" depart="257.00" departLane="53o_0" departPos="7.10" departSpeed="0.00" departDelay="9.00" arrival="325.00" arrivalLane="54i_0" arrivalPos="14.27" arrivalSpeed="6.83" duration="68.00" routeLength="266.73" waitSteps="7" timeLoss="40.96" rerouteNo="0" devices="tripinfo_bus_up_191" vType="bus" speedFactor="1.00" vaporized=""/>
    <tripinfo id="car_up_222" depart="284.00" departLane="53o_0" departPos="5.10" departSpeed="0.00" departDelay="0.00" arrival="327.00" arrivalLane="54i_0" arrivalPos="14.27" arrivalSpeed="7.72" duration="43.00" routeLength="268.73" waitSteps="0" timeLoss="23.53" rerouteNo="0" devices="tripinfo_car_up_222" vType="car" speedFactor="1.00" vaporized=""/>
    <tripinfo id="bike_down_205" depart="276.00" departLane="54o_0" departPos="1.90" departSpeed="0.00" departDelay="18.00" arrival="327.00" arrivalLane="53i_0" arrivalPos="12.89" arrivalSpeed="11.15" duration="51.00" routeLength="271.89" waitSteps="0" timeLoss="33.11" rerouteNo="0" devices="tripinfo_bike_down_205" vType="bike" speedFactor="1.12" vaporized=""/>
    <tripinfo id="bus_down_206" depart="283.00" departLane="54o_0" departPos="7.10" departSpeed="0.00" departDelay="25.00" arrival="329.00" arrivalLane="53i_0" arrivalPos="12.89" arrivalSpeed="9.98" duration="46.00" routeLength="266.69" waitSteps="0" timeLoss="18.77" rerouteNo="0" devices="tripinfo_bus_down_206" vType="bus" speedFactor="1.00" vaporized=""/>
    <tripinfo id="bike_up_223" depart="287.00" departLane="53o_0" departPos="1.90" departSpeed="0.00" departDelay="3.00" arrival="330.00" arrivalLane="54i_0" arrivalPos="14.27" arrivalSpeed="9.09" duration="43.00" routeLength="271.93" waitSteps="0" timeLoss="26.05" rerouteNo="0" devices="tripinfo_bike_up_223" vType="bike" speedFactor="1.16" vaporized=""/>
    <tripinfo id="car_down_237" depart="293.00" departLane="54o_0" departPos="5.10" departSpeed="0.00" departDelay="0.00" arrival="331.00" arrivalLane="53i_0" arrivalPos="12.89" arrivalSpeed="10.98" duration="38.00" routeLength="268.69" waitSteps="0" timeLoss="18.13" rerouteNo="0" devices="tripinfo_car_down_237" vType="car" speedFactor="1.00" vaporized=""/>
    <tripinfo id="car_right_30" depart="67.00" departLane="1o_0" departPos="5.10" departSpeed="0.00" departDelay="36.00" arrival="346.00" arrivalLane="2i_0" arrivalPos="99.28" arrivalSpeed="12.29" duration="279.00" routeLength="202.57" waitSteps="222" timeLoss="263.85" rerouteNo="0" devices="tripinfo_car_right_30" vType="car" speedFactor="1.00" vaporized=""/>
    <tripinfo id="car_left_42" depart="59.00" departLane="2o_0" departPos="5.10" departSpeed="0.00" departDelay="18.00" arrival="346.00" arrivalLane="1i_0" arrivalPos="91.45" arrivalSpeed="11.74" duration="287.00" routeLength="202.76" waitSteps="231" timeLoss="271.85" rerouteNo="0" devices="tripinfo_car_left_42" vType="car" speedFactor="1.00" vaporized=""/>