<?xml version="1.0" encoding="UTF-8"?>

<!-- generated on Mon 07 May 2018 03:50:42 PM IST by SUMO gui Version 0.32.0
<?xml version="1.0" encoding="UTF-8"?>

<configuration xmlns:xsi="http://www.w3.org/2001/XMLSchema-instance" xsi:noNamespaceSchemaLocation="http://sumo.dlr.de/xsd/sumoConfiguration.xsd">

    <input>
        <net-file value="data/ijipura.net.xml"/>
        <route-files value="data/cross.rou.xml"/>
        <additional-files value="data/cross.det.xml,data/ijipura.poly.xml"/>
    </input>

    <output>
        <tripinfo-output value="tripinfo.xml"/>
    </output>

    <time>
        <begin value="0"/>
    </time>

    <report>
        <verbose value="true"/>
        <no-step-log value="true"/>
    </report>

    <traci_server>
        <remote-port value="55227"/>
    </traci_server>

</configuration>
-->

<tripinfos xmlns:xsi="http://www.w3.org/2001/XMLSchema-instance" xsi:noNamespaceSchemaLocation="http://sumo.dlr.de/xsd/tripinfo_file.xsd">
    <tripinfo id="car_left_0" depart="0.00" departLane="2o_0" departPos="5.10" departSpeed="0.00" departDelay="0.00" arrival="26.00" arrivalLane="1i_0" arrivalPos="91.45" arrivalSpeed="13.62" duration="26.00" routeLength="202.76" waitSteps="0" timeLoss="10.77" rerouteNo="0" devices="tripinfo_car_left_0" vType="car" speedFactor="1.00" vaporized=""/>
    <tripinfo id="car_up_9" depart="4.00" departLane="53o_0" departPos="5.10" departSpeed="0.00" departDelay="0.00" arrival="35.00" arrivalLane="54i_0" arrivalPos="14.27" arrivalSpeed="13.59" duration="31.00" routeLength="268.73" waitSteps="0" timeLoss="11.08" rerouteNo="0" devices="tripinfo_car_up_9" vType="car" speedFactor="1.00" vaporized=""/>
    <tripinfo id="bike_up_10" depart="7.00" departLane="53o_0" departPos="1.90" departSpeed="0.00" departDelay="3.00" arrival="39.00" arrivalLane="54i_0" arrivalPos="14.27" arrivalSpeed="14.96" duration="32.00" routeLength="271.93" waitSteps="0" timeLoss="17.71" rerouteNo="0" devices="tripinfo_bike_up_10" vType="bike" speedFactor="1.41" vaporized=""/>
    <tripinfo id="bus_up_11" depart="13.00" departLane="53o_0" departPos="7.10" departSpeed="0.00" departDelay="9.00" arrival="53.00" arrivalLane="54i_0" arrivalPos="14.27" arrivalSpeed="9.90" duration="40.00" routeLength="266.73" waitSteps="0" timeLoss="13.12" rerouteNo="0" devices="tripinfo_bus_up_11" vType="bus" speedFactor="1.00" vaporized=""/>
    <tripinfo id="car_up_18" depart="19.00" departLane="53o_0" departPos="5.10" departSpeed="0.00" departDelay="3.00" arrival="55.00" arrivalLane="54i_0" arrivalPos="14.27" arrivalSpeed="11.27" duration="36.00" routeLength="268.73" waitSteps="0" timeLoss="16.36" rerouteNo="0" devices="tripinfo_car_up_18" vType="car" speedFactor="1.00" vaporized=""/>
    <tripinfo id="bike_left_1" depart="3.00" departLane="2o_0" departPos="1.90" departSpeed="0.00" departDelay="3.00" arrival="67.00" arrivalLane="1i_0" arrivalPos="91.45" arrivalSpeed="11.80" duration="64.00" routeLength="205.96" waitSteps="27" timeLoss="51.86" rerouteNo="0" devices="tripinfo_bike_left_1" vType="bike" speedFactor="1.30" vaporized=""/>
    <tripinfo id="bike_right_7" depart="6.00" departLane="1o_0" departPos="1.90" departSpeed="0.00" departDelay="3.00" arrival="67.00" arrivalLane="2i_1" arrivalPos="99.28" arrivalSpeed="11.57" duration="61.00" routeLength="205.77" waitSteps="21" timeLoss="46.88" rerouteNo="0" devices="tripinfo_bike_right_7" vType="bike" speedFactor="1.05" vaporized=""/>
    <tripinfo id="car_right_6" depart="3.00" departLane="1o_0" departPos="5.10" departSpeed="0.00" departDelay="0.00" arrival="68.00" arrivalLane="2i_0" arrivalPos="99.28" arrivalSpeed="12.08" duration="65.00" routeLength="202.57" waitSteps="28" timeLoss="49.62" rerouteNo="0" devices="tripinfo_car_right_6" vType="car" speedFactor="1.00" vaporized=""/>
    <tripinfo id="car_left_3" depart="15.00" departLane="2o_0" departPos="5.10" departSpeed="0.00" departDelay="13.00" arrival="69.00" arrivalLane="1i_0" arrivalPos="91.45" arrivalSpeed="11.63" duration="54.00" routeLength="202.76" waitSteps="16" timeLoss="38.93" rerouteNo="0" devices="tripinfo_car_left_3" vType="car" speedFactor="1.00" vaporized=""/>
    <tripinfo id="car_right_15" depart="18.00" departLane="1o_0" departPos="5.10" departSpeed="0.00" departDelay="7.00" arrival="69.00" arrivalLane="2i_1" arrivalPos="99.28" arrivalSpeed="11.50" duration="51.00" routeLength="202.57" waitSteps="14" timeLoss="36.20" rerouteNo="0" devices="tripinfo_car_right_15" vType="car" speedFactor="1.00" vaporized=""/>
    <tripinfo id="bus_left_2" depart="9.00" departLane="2o_0" departPos="7.10" departSpeed="0.00" departDelay="9.00" arrival="72.00" arrivalLane="1i_1" arrivalPos="91.45" arrivalSpeed="9.00" duration="63.00" routeLength="200.76" waitSteps="17" timeLoss="42.63" rerouteNo="0" devices="tripinfo_bus_left_2" vType="bus" speedFactor="1.00" vaporized=""/>
    <tripinfo id="bike_right_16" depart="21.00" departLane="1o_0" departPos="1.90" departSpeed="0.00" departDelay="10.00" arrival="73.00" arrivalLane="2i_1" arrivalPos="99.28" arrivalSpeed="12.16" duration="52.00" routeLength="205.77" waitSteps="8" timeLoss="39.27" rerouteNo="0" devices="tripinfo_bike_right_16" vType="bike" speedFactor="1.23" vaporized=""/>
    <tripinfo id="bike_up_19" depart="22.00" departLane="53o_0" departPos="1.90" departSpeed="0.00" departDelay="6.00" arrival="73.00" arrivalLane="54i_0" arrivalPos="14.27" arrivalSpeed="5.86" duration="51.00" routeLength="271.93" waitSteps="0" timeLoss="5.41" rerouteNo="0" devices="tripinfo_bike_up_19" vType="bike" speedFactor="0.43" vaporized=""/>
    <tripinfo id="bus_right_8" depart="12.00" departLane="1o_0" departPos="7.10" departSpeed="0.00" departDelay="9.00" arrival="75.00" arrivalLane="2i_0" arrivalPos="99.28" arrivalSpeed="9.93" duration="63.00" routeLength="200.57" waitSteps="16" timeLoss="42.01" rerouteNo="0" devices="tripinfo_bus_right_8" vType="bus" speedFactor="1.00" vaporized=""/>
    <tripinfo id="bus_left_5" depart="25.00" departLane="2o_0" departPos="7.10" departSpeed="0.00" departDelay="23.00" arrival="75.00" arrivalLane="1i_0" arrivalPos="91.45" arrivalSpeed="9.51" duration="50.00" routeLength="200.76" waitSteps="4" timeLoss="29.64" rerouteNo="0" devices="tripinfo_bus_left_5" vType="bus" speedFactor="1.00" vaporized=""/>
    <tripinfo id="bike_left_4" depart="18.00" departLane="2o_0" departPos="1.90" departSpeed="0.00" departDelay="16.00" arrival="76.00" arrivalLane="1i_1" arrivalPos="91.45" arrivalSpeed="9.60" duration="58.00" routeLength="205.96" waitSteps="10" timeLoss="35.61" rerouteNo="0" devices="tripinfo_bike_left_4" vType="bike" speedFactor="0.69" vaporized=""/>
    <tripinfo id="car_left_12" depart="31.00" departLane="2o_0" departPos="5.10" departSpeed="0.00" departDelay="21.00" arrival="77.00" arrivalLane="1i_1" arrivalPos="91.45" arrivalSpeed="9.58" duration="46.00" routeLength="202.76" waitSteps="1" timeLoss="31.10" rerouteNo="0" devices="tripinfo_car_left_12" vType="car" speedFactor="1.00" vaporized=""/>
    <tripinfo id="car_right_21" depart="34.00" departLane="1o_0" departPos="5.10" departSpeed="0.00" departDelay="12.00" arrival="77.00" arrivalLane="2i_0" arrivalPos="99.28" arrivalSpeed="10.64" duration="43.00" routeLength="202.57" waitSteps="0" timeLoss="27.68" rerouteNo="0" devices="tripinfo_car_right_21" vType="car" speedFactor="1.00" vaporized=""/>
    <tripinfo id="bus_right_17" depart="28.00" departLane="1o_0" departPos="7.10" departSpeed="0.00" departDelay="17.00" arrival="77.00" arrivalLane="2i_1" arrivalPos="99.28" arrivalSpeed="9.93" duration="49.00" routeLength="200.57" waitSteps="4" timeLoss="28.89" rerouteNo="0" devices="tripinfo_bus_right_17" vType="bus" speedFactor="1.00" vaporized=""/>
    <tripinfo id="bus_left_14" depart="40.00" departLane="2o_0" departPos="7.10" departSpeed="0.00" departDelay="30.00" arrival="78.00" arrivalLane="1i_0" arrivalPos="91.45" arrivalSpeed="9.75" duration="38.00" routeLength="200.76" waitSteps="0" timeLoss="17.37" rerouteNo="0" devices="tripinfo_bus_left_14" vType="bus" speedFactor="1.00" vaporized=""/>
    <tripinfo id="bike_left_13" depart="34.00" departLane="2o_0" departPos="1.90" departSpeed="0.00" departDelay="24.00" arrival="80.00" arrivalLane="1i_1" arrivalPos="91.45" arrivalSpeed="9.59" duration="46.00" routeLength="205.96" waitSteps="0" timeLoss="32.89" rerouteNo="0" devices="tripinfo_bike_left_13" vType="bike" speedFactor="1.15" vaporized=""/>
    <tripinfo id="bike_right_22" depart="37.00" departLane="1o_0" departPos="1.90" departSpeed="0.00" departDelay="15.00" arrival="80.00" arrivalLane="2i_0" arrivalPos="99.28" arrivalSpeed="9.52" duration="43.00" routeLength="205.77" waitSteps="0" timeLoss="20.91" rerouteNo="0" devices="tripinfo_bike_right_22" vType="bike" speedFactor="0.69" vaporized=""/>
    <tripinfo id="bus_right_23" depart="43.00" departLane="1o_0" departPos="7.10" departSpeed="0.00" departDelay="21.00" arrival="80.00" arrivalLane="2i_1" arrivalPos="99.28" arrivalSpeed="9.85" duration="37.00" routeLength="200.57" waitSteps="0" timeLoss="16.13" rerouteNo="0" devices="tripinfo_bus_right_23" vType="bus" speedFactor="1.00" vaporized=""/>
    <tripinfo id="car_left_24" depart="46.00" departLane="2o_0" departPos="5.10" departSpeed="0.00" departDelay="24.00" arrival="82.00" arrivalLane="1i_1" arrivalPos="91.45" arrivalSpeed="9.71" duration="36.00" routeLength="202.76" waitSteps="0" timeLoss="20.88" rerouteNo="0" devices="tripinfo_car_left_24" vType="car" speedFactor="1.00" vaporized=""/>
    <tripinfo id="car_down_33" depart="31.00" departLane="54o_0" departPos="5.10" departSpeed="0.00" departDelay="0.00" arrival="88.00" arrivalLane="53i_0" arrivalPos="12.89" arrivalSpeed="12.62" duration="57.00" routeLength="268.69" waitSteps="13" timeLoss="37.63" rerouteNo="0" devices="tripinfo_car_down_33" vType="car" speedFactor="1.00" vaporized=""/>
    <tripinfo id="bike_down_34" depart="34.00" departLane="54o_0" departPos="1.90" departSpeed="0.00" departDelay="3.00" arrival="92.00" arrivalLane="53i_0" arrivalPos="12.89" arrivalSpeed="12.59" duration="58.00" routeLength="271.89" waitSteps="9" timeLoss="41.64" rerouteNo="0" devices="tripinfo_bike_down_34" vType="bike" speedFactor="1.24" vaporized=""/>
    <tripinfo id="bus_up_20" depart="28.00" departLane="53o_0" departPos="7.10" departSpeed="0.00" departDelay="12.00" arrival="96.00" arrivalLane="54i_0" arrivalPos="14.27" arrivalSpeed="9.76" duration="68.00" routeLength="266.73" waitSteps="14" timeLoss="40.95" rerouteNo="0" devices="tripinfo_bus_up_20" vType="bus" speedFactor="1.00" vaporized=""/>
    <tripinfo id="bus_down_35" depart="41.00" departLane="54o_0" departPos="7.10" departSpeed="0.00" departDelay="10.00" arrival="97.00" arrivalLane="53i_0" arrivalPos="12.89" arrivalSpeed="9.96" duration="56.00" routeLength="266.69" waitSteps="3" timeLoss="29.19" rerouteNo="0" devices="tripinfo_bus_down_35" vType="bus" speedFactor="1.00" vaporized=""/>
    <tripinfo id="car_down_63" depart="72.00" departLane="54o_0" departPos="5.10" departSpeed="0.00" departDelay="0.00" arrival="103.00" arrivalLane="53i_0" arrivalPos="12.89" arrivalSpeed="13.59" duration="31.00" routeLength="268.69" waitSteps="0" timeLoss="10.78" rerouteNo="0" devices="tripinfo_car_down_63" vType="car" speedFactor="1.00" vaporized=""/>
    <tripinfo id="car_right_27" depart="50.00" departLane="1o_0" departPos="5.10" departSpeed="0.00" departDelay="25.00" arrival="116.00" arrivalLane="2i_0" arrivalPos="99.28" arrivalSpeed="11.88" duration="66.00" routeLength="202.57" waitSteps="29" timeLoss="50.35" rerouteNo="0" devices="tripinfo_car_right_27" vType="car" speedFactor="1.00" vaporized=""/>
    <tripinfo id="bike_right_28" depart="53.00" departLane="1o_0" departPos="1.90" departSpeed="0.00" departDelay="28.00" arrival="116.00" arrivalLane="2i_1" arrivalPos="99.28" arrivalSpeed="12.16" duration="63.00" routeLength="205.77" waitSteps="22" timeLoss="52.12" rerouteNo="0" devices="tripinfo_bike_right_28" vType="bike" speedFactor="1.45" vaporized=""/>
    <tripinfo id="car_right_30" depart="67.00" departLane="1o_0" departPos="5.10" departSpeed="0.00" departDelay="36.00" arrival="118.00" arrivalLane="2i_1" arrivalPos="99.28" arrivalSpeed="11.96" duration="51.00" routeLength="202.57" waitSteps="14" timeLoss="35.67" rerouteNo="0" devices="tripinfo_car_right_30" vType="car" speedFactor="1.00" vaporized=""/>
    <tripinfo id="bike_right_31" depart="70.00" departLane="1o_0" departPos="1.90" departSpeed="0.00" departDelay="39.00" arrival="121.00" arrivalLane="2i_1" arrivalPos="99.28" arrivalSpeed="11.63" duration="51.00" routeLength="205.77" waitSteps="9" timeLoss="37.52" rerouteNo="0" devices="tripinfo_bike_right_31" vType="bike" speedFactor="1.13" vaporized=""/>
    <tripinfo id="bus_left_26" depart="56.00" departLane="2o_0" departPos="7.10" departSpeed="0.00" departDelay="34.00" arrival="121.00" arrivalLane="1i_0" arrivalPos="91.45" arrivalSpeed="9.45" duration="65.00" routeLength="200.76" waitSteps="17" timeLoss="44.06" rerouteNo="0" devices="tripinfo_bus_left_26" vType="bus" speedFactor="1.00" vaporized=""/>
    <tripinfo id="bus_right_29" depart="60.00" departLane="1o_0" departPos="7.10" departSpeed="0.00" departDelay="35.00" arrival="123.00" arrivalLane="2i_0" arrivalPos="99.28" arrivalSpeed="9.29" duration="63.00" routeLength="200.57" waitSteps="16" timeLoss="42.64" rerouteNo="0" devices="tripinfo_bus_right_29" vType="bus" speedFactor="1.00" vaporized=""/>
    <tripinfo id="bike_left_43" depart="66.00" departLane="2o_0" departPos="1.90" departSpeed="0.00" departDelay="25.00" arrival="124.00" arrivalLane="1i_1" arrivalPos="91.45" arrivalSpeed="8.72" duration="58.00" routeLength="205.96" waitSteps="9" timeLoss="33.94" rerouteNo="0" devices="tripinfo_bike_left_43" vType="bike" speedFactor="0.63" vaporized=""/>
    <tripinfo id="car_left_48" depart="78.00" departLane="2o_0" departPos="5.10" departSpeed="0.00" departDelay="29.00" arrival="125.00" arrivalLane="1i_1" arrivalPos="91.45" arrivalSpeed="9.41" duration="47.00" routeLength="202.76" waitSteps="1" timeLoss="32.25" rerouteNo="0" devices="tripinfo_car_left_48" vType="car" speedFactor="1.00" vaporized=""/>
    <tripinfo id="car_right_36" depart="83.00" departLane="1o_0" departPos="5.10" departSpeed="0.00" departDelay="49.00" arrival="125.00" arrivalLane="2i_0" arrivalPos="99.28" arrivalSpeed="10.19" duration="42.00" routeLength="202.57" waitSteps="1" timeLoss="27.16" rerouteNo="0" devices="tripinfo_car_right_36" vType="car" speedFactor="1.00" vaporized=""/>
    <tripinfo id="bus_right_32" depart="77.00" departLane="1o_0" departPos="7.10" departSpeed="0.00" departDelay="46.00" arrival="125.00" arrivalLane="2i_1" arrivalPos="99.28" arrivalSpeed="9.80" duration="48.00" routeLength="200.57" waitSteps="2" timeLoss="27.38" rerouteNo="0" devices="tripinfo_bus_right_32" vType="bus" speedFactor="1.00" vaporized=""/>
    <tripinfo id="bike_left_49" depart="81.00" departLane="2o_0" departPos="1.90" departSpeed="0.00" departDelay="32.00" arrival="128.00" arrivalLane="1i_1" arrivalPos="91.45" arrivalSpeed="9.46" duration="47.00" routeLength="205.96" waitSteps="0" timeLoss="26.03" rerouteNo="0" devices="tripinfo_bike_left_49" vType="bike" speedFactor="0.71" vaporized=""/>
    <tripinfo id="bike_right_37" depart="87.00" departLane="1o_0" departPos="1.90" departSpeed="0.00" departDelay="53.00" arrival="128.00" arrivalLane="2i_0" arrivalPos="99.28" arrivalSpeed="10.45" duration="41.00" routeLength="205.77" waitSteps="0" timeLoss="30.61" rerouteNo="0" devices="tripinfo_bike_right_37" vType="bike" speedFactor="1.61" vaporized=""/>
    <tripinfo id="bike_left_25" depart="49.00" departLane="2o_0" departPos="1.90" departSpeed="0.00" departDelay="27.00" arrival="129.00" arrivalLane="1i_0" arrivalPos="91.45" arrivalSpeed="3.94" duration="80.00" routeLength="205.96" waitSteps="16" timeLoss="27.03" rerouteNo="0" devices="tripinfo_bike_left_25" vType="bike" speedFactor="0.28" vaporized=""/>
    <tripinfo id="car_left_60" depart="95.00" departLane="2o_0" departPos="5.10" departSpeed="0.00" departDelay="28.00" arrival="130.00" arrivalLane="1i_1" arrivalPos="91.45" arrivalSpeed="9.80" duration="35.00" routeLength="202.76" waitSteps="0" timeLoss="20.11" rerouteNo="0" devices="tripinfo_car_left_60" vType="car" speedFactor="1.00" vaporized=""/>
    <tripinfo id="bus_right_38" depart="93.00" departLane="1o_0" departPos="7.10" departSpeed="0.00" departDelay="59.00" arrival="130.00" arrivalLane="2i_0" arrivalPos="99.28" arrivalSpeed="9.79" duration="37.00" routeLength="200.57" waitSteps="0" timeLoss="16.67" rerouteNo="0" devices="tripinfo_bus_right_38" vType="bus" speedFactor="1.00" vaporized=""/>
    <tripinfo id="car_left_42" depart="62.00" departLane="2o_0" departPos="5.10" departSpeed="0.00" departDelay="21.00" arrival="131.00" arrivalLane="1i_0" arrivalPos="91.45" arrivalSpeed="4.99" duration="69.00" routeLength="202.76" waitSteps="15" timeLoss="54.10" rerouteNo="0" devices="tripinfo_car_left_42" vType="car" speedFactor="1.00" vaporized=""/>
    <tripinfo id="bus_left_44" depart="72.00" departLane="2o_0" departPos="7.10" departSpeed="0.00" departDelay="31.00" arrival="134.00" arrivalLane="1i_0" arrivalPos="91.45" arrivalSpeed="5.24" duration="62.00" routeLength="200.76" waitSteps="6" timeLoss="41.54" rerouteNo="0" devices="tripinfo_bus_left_44" vType="bus" speedFactor="1.00" vaporized=""/>
    <tripinfo id="car_up_81" depart="103.00" departLane="53o_0" departPos="5.10" departSpeed="0.00" departDelay="0.00" arrival="134.00" arrivalLane="54i_0" arrivalPos="14.27" arrivalSpeed="13.81" duration="31.00" routeLength="268.73" waitSteps="0" timeLoss="11.03" rerouteNo="0" devices="tripinfo_car_up_81" vType="car" speedFactor="1.00" vaporized=""/>
    <tripinfo id="bus_left_50" depart="88.00" departLane="2o_0" departPos="7.10" departSpeed="0.00" departDelay="39.00" arrival="136.00" arrivalLane="1i_1" arrivalPos="91.45" arrivalSpeed="6.36" duration="48.00" routeLength="200.76" waitSteps="0" timeLoss="27.82" rerouteNo="0" devices="tripinfo_bus_left_50" vType="bus" speedFactor="1.00" vaporized=""/>
    <tripinfo id="bike_down_64" depart="75.00" departLane="54o_0" departPos="1.90" departSpeed="0.00" departDelay="3.00" arrival="136.00" arrivalLane="53i_0" arrivalPos="12.89" arrivalSpeed="11.82" duration="61.00" routeLength="271.89" waitSteps="19" timeLoss="37.51" rerouteNo="0" devices="tripinfo_bike_down_64" vType="bike" speedFactor="0.88" vaporized=""/>
    <tripinfo id="bus_down_65" depart="81.00" departLane="54o_0" departPos="7.10" departSpeed="0.00" departDelay="9.00" arrival="143.00" arrivalLane="53i_0" arrivalPos="12.89" arrivalSpeed="9.77" duration="62.00" routeLength="266.69" waitSteps="8" timeLoss="34.55" rerouteNo="0" devices="tripinfo_bus_down_65" vType="bus" speedFactor="1.00" vaporized=""/>
    <tripinfo id="bike_up_82" depart="106.00" departLane="53o_0" departPos="1.90" departSpeed="0.00" departDelay="3.00" arrival="144.00" arrivalLane="54i_0" arrivalPos="14.27" arrivalSpeed="9.00" duration="38.00" routeLength="271.93" waitSteps="0" timeLoss="7.39" rerouteNo="0" devices="tripinfo_bike_up_82" vType="bike" speedFactor="0.66" vaporized=""/>
    <tripinfo id="car_down_72" depart="88.00" departLane="54o_0" departPos="5.10" departSpeed="0.00" departDelay="3.00" arrival="145.00" arrivalLane="53i_0" arrivalPos="12.89" arrivalSpeed="11.41" duration="57.00" routeLength="268.69" waitSteps="7" timeLoss="36.92" rerouteNo="0" devices="tripinfo_car_down_72" vType="car" speedFactor="1.00" vaporized=""/>
    <tripinfo id="bike_down_73" depart="91.00" departLane="54o_0" departPos="1.90" departSpeed="0.00" departDelay="6.00" arrival="149.00" arrivalLane="53i_0" arrivalPos="12.89" arrivalSpeed="8.14" duration="58.00" routeLength="271.89" waitSteps="3" timeLoss="24.30" rerouteNo="0" devices="tripinfo_bike_down_73" vType="bike" speedFactor="0.59" vaporized=""/>
    <tripinfo id="bus_down_74" depart="97.00" departLane="54o_0" departPos="7.10" departSpeed="0.00" departDelay="12.00" arrival="151.00" arrivalLane="53i_0" arrivalPos="12.89" arrivalSpeed="8.60" duration="54.00" routeLength="266.69" waitSteps="0" timeLoss="26.93" rerouteNo="0" devices="tripinfo_bus_down_74" vType="bus" speedFactor="1.00" vaporized=""/>
    <tripinfo id="bus_up_83" depart="112.00" departLane="53o_0" departPos="7.10" departSpeed="0.00" departDelay="9.00" arrival="152.00" arrivalLane="54i_0" arrivalPos="14.27" arrivalSpeed="9.77" duration="40.00" routeLength="266.73" waitSteps="0" timeLoss="12.76" rerouteNo="0" devices="tripinfo_bus_up_83" vType="bus" speedFactor="1.00" vaporized=""/>
    <tripinfo id="car_down_78" depart="104.00" departLane="54o_0" departPos="5.10" departSpeed="0.00" departDelay="6.00" arrival="153.00" arrivalLane="53i_0" arrivalPos="12.89" arrivalSpeed="9.73" duration="49.00" routeLength="268.69" waitSteps="0" timeLoss="29.33" rerouteNo="0" devices="tripinfo_car_down_78" vType="car" speedFactor="1.00" vaporized=""/>
    <tripinfo id="car_up_84" depart="118.00" departLane="53o_0" departPos="5.10" departSpeed="0.00" departDelay="12.00" arrival="154.00" arrivalLane="54i_0" arrivalPos="14.27" arrivalSpeed="11.47" duration="36.00" routeLength="268.73" waitSteps="0" timeLoss="16.07" rerouteNo="0" devices="tripinfo_car_up_84" vType="car" speedFactor="1.00" vaporized=""/>
    <tripinfo id="bike_down_79" depart="107.00" departLane="54o_0" departPos="1.90" departSpeed="0.00" departDelay="9.00" arrival="156.00" arrivalLane="53i_0" arrivalPos="12.89" arrivalSpeed="10.23" duration="49.00" routeLength="271.89" waitSteps="0" timeLoss="35.25" rerouteNo="0" devices="tripinfo_bike_down_79" vType="bike" speedFactor="1.66" vaporized=""/>
    <tripinfo id="bike_up_85" depart="121.00" departLane="53o_0" departPos="1.90" departSpeed="0.00" departDelay="15.00" arrival="157.00" arrivalLane="54i_0" arrivalPos="14.27" arrivalSpeed="11.88" duration="36.00" routeLength="271.93" waitSteps="0" timeLoss="22.28" rerouteNo="0" devices="tripinfo_bike_up_85" vType="bike" speedFactor="1.89" vaporized=""/>
    <tripinfo id="bus_down_80" depart="114.00" departLane="54o_0" departPos="7.10" departSpeed="0.00" departDelay="16.00" arrival="158.00" arrivalLane="53i_0" arrivalPos="12.89" arrivalSpeed="9.73" duration="44.00" routeLength="266.69" waitSteps="0" timeLoss="16.96" rerouteNo="0" devices="tripinfo_bus_down_80" vType="bus" speedFactor="1.00" vaporized=""/>
    <tripinfo id="bike_left_61" depart="98.00" departLane="2o_0" departPos="1.90" departSpeed="0.00" departDelay="31.00" arrival="163.00" arrivalLane="1i_0" arrivalPos="91.45" arrivalSpeed="12.05" duration="65.00" routeLength="205.96" waitSteps="28" timeLoss="50.27" rerouteNo="0" devices="tripinfo_bike_left_61" vType="bike" speedFactor="1.05" vaporized=""/>
    <tripinfo id="car_right_39" depart="99.00" departLane="1o_0" departPos="5.10" departSpeed="0.00" departDelay="59.00" arrival="164.00" arrivalLane="2i_1" arrivalPos="99.28" arrivalSpeed="11.96" duration="65.00" routeLength="202.57" waitSteps="28" timeLoss="49.84" rerouteNo="0" devices="tripinfo_car_right_39" vType="car" speedFactor="1.00" vaporized=""/>
    <tripinfo id="car_left_66" depart="111.00" departLane="2o_0" departPos="5.10" departSpeed="0.00" departDelay="37.00" arrival="165.00" arrivalLane="1i_0" arrivalPos="91.45" arrivalSpeed="11.79" duration="54.00" routeLength="202.76" waitSteps="14" timeLoss="38.73" rerouteNo="0" devices="tripinfo_car_left_66" vType="car" speedFactor="1.00" vaporized=""/>
    <tripinfo id="bike_right_40" depart="102.00" departLane="1o_0" departPos="1.90" departSpeed="0.00" departDelay="62.00" arrival="165.00" arrivalLane="2i_0" arrivalPos="99.28" arrivalSpeed="11.93" duration="63.00" routeLength="205.77" waitSteps="22" timeLoss="46.68" rerouteNo="0" devices="tripinfo_bike_right_40" vType="bike" speedFactor="0.96" vaporized=""/>
    <tripinfo id="car_right_45" depart="115.00" departLane="1o_0" departPos="5.10" departSpeed="0.00" departDelay="71.00" arrival="166.00" arrivalLane="2i_1" arrivalPos="99.28" arrivalSpeed="13.01" duration="51.00" routeLength="202.57" waitSteps="13" timeLoss="35.55" rerouteNo="0" devices="tripinfo_car_right_45" vType="car" speedFactor="1.00" vaporized=""/>
    <tripinfo id="bus_left_62" depart="105.00" departLane="2o_0" departPos="7.10" departSpeed="0.00" departDelay="38.00" arrival="168.00" arrivalLane="1i_1" arrivalPos="91.45" arrivalSpeed="9.34" duration="63.00" routeLength="200.76" waitSteps="17" timeLoss="42.32" rerouteNo="0" devices="tripinfo_bus_left_62" vType="bus" speedFactor="1.00" vaporized=""/>
    <tripinfo id="bus_right_41" depart="109.00" departLane="1o_0" departPos="7.10" departSpeed="0.00" departDelay="69.00" arrival="171.00" arrivalLane="2i_0" arrivalPos="99.28" arrivalSpeed="9.65" duration="62.00" routeLength="200.57" waitSteps="15" timeLoss="41.44" rerouteNo="0" devices="tripinfo_bus_right_41" vType="bus" speedFactor="1.00" vaporized=""/>
    <tripinfo id="bus_left_68" depart="120.00" departLane="2o_0" departPos="7.10" departSpeed="0.00" departDelay="46.00" arrival="172.00" arrivalLane="1i_0" arrivalPos="91.45" arrivalSpeed="9.58" duration="52.00" routeLength="200.76" waitSteps="6" timeLoss="31.56" rerouteNo="0" devices="tripinfo_bus_left_68" vType="bus" speedFactor="1.00" vaporized=""/>
    <tripinfo id="bike_left_67" depart="114.00" departLane="2o_0" departPos="1.90" departSpeed="0.00" departDelay="40.00" arrival="173.00" arrivalLane="1i_1" arrivalPos="91.45" arrivalSpeed="6.19" duration="59.00" routeLength="205.96" waitSteps="8" timeLoss="25.80" rerouteNo="0" devices="tripinfo_bike_left_67" vType="bike" speedFactor="0.45" vaporized=""/>
    <tripinfo id="bus_left_92" depart="135.00" departLane="2o_0" departPos="7.10" departSpeed="0.00" departDelay="18.00" arrival="174.00" arrivalLane="1i_0" arrivalPos="91.45" arrivalSpeed="9.79" duration="39.00" routeLength="200.76" waitSteps="0" timeLoss="18.83" rerouteNo="0" devices="tripinfo_bus_left_92" vType="bus" speedFactor="1.00" vaporized=""/>
    <tripinfo id="bus_right_47" depart="124.00" departLane="1o_0" departPos="7.10" departSpeed="0.00" departDelay="80.00" arrival="174.00" arrivalLane="2i_0" arrivalPos="99.28" arrivalSpeed="9.92" duration="50.00" routeLength="200.57" waitSteps="4" timeLoss="29.53" rerouteNo="0" devices="tripinfo_bus_right_47" vType="bus" speedFactor="1.00" vaporized=""/>
    <tripinfo id="car_left_90" depart="126.00" departLane="2o_0" departPos="5.10" departSpeed="0.00" departDelay="9.00" arrival="175.00" arrivalLane="1i_1" arrivalPos="91.45" arrivalSpeed="6.74" duration="49.00" routeLength="202.76" waitSteps="2" timeLoss="34.21" rerouteNo="0" devices="tripinfo_car_left_90" vType="car" speedFactor="1.00" vaporized=""/>
    <tripinfo id="bike_right_46" depart="118.00" departLane="1o_0" departPos="1.90" departSpeed="0.00" departDelay="74.00" arrival="176.00" arrivalLane="2i_1" arrivalPos="99.28" arrivalSpeed="5.14" duration="58.00" routeLength="205.77" waitSteps="7" timeLoss="19.90" rerouteNo="0" devices="tripinfo_bike_right_46" vType="bike" speedFactor="0.39" vaporized=""/>
    <tripinfo id="bus_right_53" depart="140.00" departLane="1o_0" departPos="7.10" departSpeed="0.00" departDelay="84.00" arrival="176.00" arrivalLane="2i_0" arrivalPos="99.28" arrivalSpeed="9.79" duration="36.00" routeLength="200.57" waitSteps="0" timeLoss="15.76" rerouteNo="0" devices="tripinfo_bus_right_53" vType="bus" speedFactor="1.00" vaporized=""/>
    <tripinfo id="bike_left_91" depart="129.00" departLane="2o_0" departPos="1.90" departSpeed="0.00" departDelay="12.00" arrival="178.00" arrivalLane="1i_1" arrivalPos="91.45" arrivalSpeed="7.81" duration="49.00" routeLength="205.96" waitSteps="0" timeLoss="34.30" rerouteNo="0" devices="tripinfo_bike_left_91" vType="bike" speedFactor="1.03" vaporized=""/>
    <tripinfo id="car_right_51" depart="130.00" departLane="1o_0" departPos="5.10" departSpeed="0.00" departDelay="74.00" arrival="178.00" arrivalLane="2i_1" arrivalPos="99.28" arrivalSpeed="6.36" duration="48.00" routeLength="202.57" waitSteps="1" timeLoss="33.12" rerouteNo="0" devices="tripinfo_car_right_51" vType="car" speedFactor="1.00" vaporized=""/>
    <tripinfo id="car_left_93" depart="141.00" departLane="2o_0" departPos="5.10" departSpeed="0.00" departDelay="21.00" arrival="180.00" arrivalLane="1i_1" arrivalPos="91.45" arrivalSpeed="8.29" duration="39.00" routeLength="202.76" waitSteps="0" timeLoss="23.92" rerouteNo="0" devices="tripinfo_car_left_93" vType="car" speedFactor="1.00" vaporized=""/>
    <tripinfo id="bike_right_52" depart="133.00" departLane="1o_0" departPos="1.90" departSpeed="0.00" departDelay="77.00" arrival="181.00" arrivalLane="2i_1" arrivalPos="99.28" arrivalSpeed="7.24" duration="48.00" routeLength="205.77" waitSteps="0" timeLoss="25.72" rerouteNo="0" devices="tripinfo_bike_right_52" vType="bike" speedFactor="0.68" vaporized=""/>
    <tripinfo id="car_right_54" depart="146.00" departLane="1o_0" departPos="5.10" departSpeed="0.00" departDelay="83.00" arrival="183.00" arrivalLane="2i_1" arrivalPos="99.28" arrivalSpeed="6.92" duration="37.00" routeLength="202.57" waitSteps="0" timeLoss="22.00" rerouteNo="0" devices="tripinfo_car_right_54" vType="car" speedFactor="1.00" vaporized=""/>
    <tripinfo id="car_down_111" depart="129.00" departLane="54o_0" departPos="5.10" departSpeed="0.00" departDelay="0.00" arrival="184.00" arrivalLane="53i_0" arrivalPos="12.89" arrivalSpeed="12.95" duration="55.00" routeLength="268.69" waitSteps="11" timeLoss="35.00" rerouteNo="0" devices="tripinfo_car_down_111" vType="car" speedFactor="1.00" vaporized=""/>
    <tripinfo id="bike_down_112" depart="132.00" departLane="54o_0" departPos="1.90" departSpeed="0.00" departDelay="3.00" arrival="191.00" arrivalLane="53i_0" arrivalPos="12.89" arrivalSpeed="6.89" duration="59.00" routeLength="271.89" waitSteps="5" timeLoss="19.92" rerouteNo="0" devices="tripinfo_bike_down_112" vType="bike" speedFactor="0.50" vaporized=""/>